 vasp.5.4.1 05Feb16 (build Jul 14 2017 16:50:04) complex                        
  
 executed on           IFC91_ompi date 2020.04.27  14:28:46
 running on   28 total cores
 distrk:  each k-point on   28 cores,    1 groups
 distr:  one band on NCORES_PER_BAND=   1 cores,   28 groups


--------------------------------------------------------------------------------------------------------


 INCAR:
 POTCAR:   PAW_PBE Cs_sv 08Apr2002                
 POTCAR:   PAW_PBE Ag 06Sep2000                   
 POTCAR:   PAW_PBE Fe_sv_h 08Apr2002              
 POTCAR:    PAW_PBE Cl 17Jan2003                  

 ----------------------------------------------------------------------------- 
|                                                                             |
|           W    W    AA    RRRRR   N    N  II  N    N   GGGG   !!!           |
|           W    W   A  A   R    R  NN   N  II  NN   N  G    G  !!!           |
|           W    W  A    A  R    R  N N  N  II  N N  N  G       !!!           |
|           W WW W  AAAAAA  RRRRR   N  N N  II  N  N N  G  GGG   !            |
|           WW  WW  A    A  R   R   N   NN  II  N   NN  G    G                |
|           W    W  A    A  R    R  N    N  II  N    N   GGGG   !!!           |
|                                                                             |
|      For optimal performance we recommend to set                            |
|        NCORE= 4 - approx SQRT( number of cores)                             |
|      NCORE specifies how many cores store one orbital (NPAR=cpu/NCORE).     |
|      This setting can  greatly improve the performance of VASP for DFT.     |
|      The default, NPAR=number of cores might be grossly inefficient         |
|      on modern multi-core architectures or massively parallel machines.     |
|      Do your own testing !!!!                                               |
|      Unfortunately you need to use the default for GW and RPA calculations. |
|      (for HF NCORE is supported but not extensively tested yet)             |
|                                                                             |
 ----------------------------------------------------------------------------- 

 POTCAR:   PAW_PBE Cs_sv 08Apr2002                
   VRHFIN =Cs: 5s5p6s                                                           
   LEXCH  = PE                                                                  
   EATOM  =   555.6835 eV,   40.8416 Ry                                         
                                                                                
   TITEL  = PAW_PBE Cs_sv 08Apr2002                                             
   LULTRA =        F    use ultrasoft PP ?                                      
   IUNSCR =        1    unscreen: 0-lin 1-nonlin 2-no                           
   RPACOR =    2.200    partial core radius                                     
   POMASS =  132.900; ZVAL   =    9.000    mass and valenz                      
   RCORE  =    2.500    outmost cutoff radius                                   
   RWIGS  =    2.500; RWIGS  =    1.323    wigner-seitz radius (au A)           
   ENMAX  =  220.318; ENMIN  =  165.238 eV                                      
   RCLOC  =    2.207    cutoff for local pot                                    
   LCOR   =        T    correct aug charges                                     
   LPAW   =        T    paw PP                                                  
   EAUG   =  407.933                                                            
   DEXC   =    -.004                                                            
   RMAX   =    3.106    core radius for proj-oper                               
   RAUG   =    1.300    factor for augmentation sphere                          
   RDEP   =    2.590    radius for radial grids                                 
   QCUT   =   -4.024; QGAM   =    8.048    optimization parameters              
                                                                                
   Description                                                                  
     l     E      TYP  RCUT    TYP  RCUT                                        
     0   .000     23  1.900                                                     
     0   .000     23  1.900                                                     
     0   .000     23  1.900                                                     
     0   .000     23  1.900                                                     
     1   .000     23  2.500                                                     
     1  -.200     23  2.500                                                     
     2   .000     23  2.500                                                     
  local pseudopotential read in
  partial core-charges read in
  atomic valenz-charges read in
  non local Contribution for L=           0  read in
    real space projection operators read in
  non local Contribution for L=           0  read in
    real space projection operators read in
  non local Contribution for L=           1  read in
    real space projection operators read in
  non local Contribution for L=           1  read in
    real space projection operators read in
  non local Contribution for L=           2  read in
    real space projection operators read in
    PAW grid and wavefunctions read in
 
   number of l-projection  operators is LMAX  =           5
   number of lm-projection operators is LMMAX =          13
 
 POTCAR:   PAW_PBE Ag 06Sep2000                   
   VRHFIN =Ag : s1 d10                                                          
   LEXCH  = PE                                                                  
   EATOM  =  1037.4134 eV,   76.2477 Ry                                         
                                                                                
   TITEL  = PAW_PBE Ag 06Sep2000                                                
   LULTRA =        F    use ultrasoft PP ?                                      
   IUNSCR =        1    unscreen: 0-lin 1-nonlin 2-no                           
   RPACOR =    2.000    partial core radius                                     
   POMASS =  107.868; ZVAL   =   11.000    mass and valenz                      
   RCORE  =    2.400    outmost cutoff radius                                   
   RWIGS  =    2.840; RWIGS  =    1.503    wigner-seitz radius (au A)           
   ENMAX  =  249.846; ENMIN  =  187.385 eV                                      
   RCLOC  =    1.962    cutoff for local pot                                    
   LCOR   =        T    correct aug charges                                     
   LPAW   =        T    paw PP                                                  
   EAUG   =  412.496                                                            
   DEXC   =    -.047                                                            
   RMAX   =    2.917    core radius for proj-oper                               
   RAUG   =    1.300    factor for augmentation sphere                          
   RDEP   =    2.416    radius for radial grids                                 
   QCUT   =   -4.285; QGAM   =    8.570    optimization parameters              
                                                                                
   Description                                                                  
     l     E      TYP  RCUT    TYP  RCUT                                        
     2   .000     23  2.400                                                     
     2   .000     23  2.400                                                     
     0   .000     23  2.400                                                     
     0   .000     23  2.400                                                     
     1  -.200     23  2.400                                                     
     1  1.500     23  2.400                                                     
     3   .000      7   .000                                                     
  local pseudopotential read in
  partial core-charges read in
  atomic valenz-charges read in
  non local Contribution for L=           2  read in
    real space projection operators read in
  non local Contribution for L=           2  read in
    real space projection operators read in
  non local Contribution for L=           0  read in
    real space projection operators read in
  non local Contribution for L=           0  read in
    real space projection operators read in
  non local Contribution for L=           1  read in
    real space projection operators read in
  non local Contribution for L=           1  read in
    real space projection operators read in
    PAW grid and wavefunctions read in
 
   number of l-projection  operators is LMAX  =           6
   number of lm-projection operators is LMMAX =          18
 
 POTCAR:   PAW_PBE Fe_sv_h 08Apr2002              
   VRHFIN =Fe:  d7 s1                                                           
   LEXCH  = PE                                                                  
   EATOM  =  3377.7268 eV,  248.2559 Ry                                         
                                                                                
   TITEL  = PAW_PBE Fe_sv_h 08Apr2002                                           
   LULTRA =        F    use ultrasoft PP ?                                      
   IUNSCR =        1    unscreen: 0-lin 1-nonlin 2-no                           
   RPACOR =    1.400    partial core radius                                     
   POMASS =   55.847; ZVAL   =   16.000    mass and valenz                      
   RCORE  =    1.600    outmost cutoff radius                                   
   RWIGS  =    2.200; RWIGS  =    1.164    wigner-seitz radius (au A)           
   ENMAX  =  547.365; ENMIN  =  410.523 eV                                      
   RCLOC  =     .801    cutoff for local pot                                    
   LCOR   =        T    correct aug charges                                     
   LPAW   =        T    paw PP                                                  
   EAUG   =  946.219                                                            
   DEXC   =     .000                                                            
   RMAX   =    1.971    core radius for proj-oper                               
   RAUG   =    1.300    factor for augmentation sphere                          
   RDEP   =    1.688    radius for radial grids                                 
   QCUT   =   -6.343; QGAM   =   12.685    optimization parameters              
                                                                                
   Description                                                                  
     l     E      TYP  RCUT    TYP  RCUT                                        
     0   .000     23  1.600                                                     
     0   .000     23  1.600                                                     
     1   .000     23  1.600                                                     
     1  2.000     23  1.600                                                     
     2   .000     23  1.600                                                     
     2   .000     23  1.600                                                     
     3   .000      7   .000                                                     
  local pseudopotential read in
  partial core-charges read in
  atomic valenz-charges read in
  non local Contribution for L=           0  read in
    real space projection operators read in
  non local Contribution for L=           0  read in
    real space projection operators read in
  non local Contribution for L=           1  read in
    real space projection operators read in
  non local Contribution for L=           1  read in
    real space projection operators read in
  non local Contribution for L=           2  read in
    real space projection operators read in
  non local Contribution for L=           2  read in
    real space projection operators read in
    PAW grid and wavefunctions read in
 
   number of l-projection  operators is LMAX  =           6
   number of lm-projection operators is LMMAX =          18
 
 POTCAR:    PAW_PBE Cl 17Jan2003                  
   VRHFIN =Cl: s2p5                                                             
   LEXCH  = PE                                                                  
   EATOM  =   409.7259 eV,   30.1140 Ry                                         
                                                                                
   TITEL  = PAW_PBE Cl 17Jan2003                                                
   LULTRA =        F    use ultrasoft PP ?                                      
   IUNSCR =        1    unscreen: 0-lin 1-nonlin 2-no                           
   RPACOR =    1.500    partial core radius                                     
   POMASS =   35.453; ZVAL   =    7.000    mass and valenz                      
   RCORE  =    1.900    outmost cutoff radius                                   
   RWIGS  =    2.100; RWIGS  =    1.111    wigner-seitz radius (au A)           
   ENMAX  =  280.000; ENMIN  =  196.854 eV                                      
   ICORE  =        2    local potential                                         
   LCOR   =        T    correct aug charges                                     
   LPAW   =        T    paw PP                                                  
   EAUG   =  356.192                                                            
   DEXC   =     .000                                                            
   RMAX   =    2.846    core radius for proj-oper                               
   RAUG   =    1.300    factor for augmentation sphere                          
   RDEP   =    2.020    radius for radial grids                                 
   QCUT   =   -4.392; QGAM   =    8.784    optimization parameters              
                                                                                
   Description                                                                  
     l     E      TYP  RCUT    TYP  RCUT                                        
     0   .000     23  1.900                                                     
     0   .000     23  1.900                                                     
     1   .000     23  1.900                                                     
     1   .000     23  1.900                                                     
     2   .000     23  1.900                                                     
  local pseudopotential read in
  partial core-charges read in
  atomic valenz-charges read in
  non local Contribution for L=           0  read in
    real space projection operators read in
  non local Contribution for L=           0  read in
    real space projection operators read in
  non local Contribution for L=           1  read in
    real space projection operators read in
  non local Contribution for L=           1  read in
    real space projection operators read in
    PAW grid and wavefunctions read in
 
   number of l-projection  operators is LMAX  =           4
   number of lm-projection operators is LMMAX =           8
 

 ----------------------------------------------------------------------------- 
|                                                                             |
|  ADVICE TO THIS USER RUNNING 'VASP/VAMP'   (HEAR YOUR MASTER'S VOICE ...):  |
|                                                                             |
|      You have a (more or less) 'large supercell' and for larger cells       |
|      it might be more efficient to use real space projection operators      |
|      So try LREAL= Auto  in the INCAR   file.                               |
|      Mind: If you want to do a very accurate calculations keep the          |
|      reciprocal projection scheme          (i.e. LREAL=.FALSE.)             |
|                                                                             |
 ----------------------------------------------------------------------------- 

 PAW_PBE Cs_sv 08Apr2002                :
 energy of atom  1       EATOM= -555.6835
 kinetic energy error for atom=    0.0009 (will be added to EATOM!!)
 PAW_PBE Ag 06Sep2000                   :
 energy of atom  2       EATOM=-1037.4134
 kinetic energy error for atom=    0.0010 (will be added to EATOM!!)
 PAW_PBE Fe_sv_h 08Apr2002              :
 energy of atom  3       EATOM=-3377.7268
 kinetic energy error for atom=    0.0650 (will be added to EATOM!!)
  PAW_PBE Cl 17Jan2003                  :
 energy of atom  4       EATOM= -409.7259
 kinetic energy error for atom=    0.0010 (will be added to EATOM!!)
 
 
 POSCAR: cs2agfecl6                              
  positions in direct lattice
  velocities in cartesian coordinates
 exchange correlation table for  LEXCH =        8
   RHO(1)=    0.500       N(1)  =     2000
   RHO(2)=  100.500       N(2)  =     4000
 


--------------------------------------------------------------------------------------------------------


 ion  position               nearest neighbor table
   1  0.250  0.750  0.750-
   2  0.750  0.250  0.250-
   3  0.750  0.250  0.750-
   4  0.250  0.750  0.250-
   5  0.750  0.750  0.250-
   6  0.250  0.250  0.750-
   7  0.250  0.250  0.250-
   8  0.750  0.750  0.750-
   9  0.500  0.000  0.500-  39 2.77  40 2.77  25 2.78  26 2.78  18 2.78  17 2.78
  10  0.500  0.500  0.000-  33 2.77  34 2.77  23 2.78  24 2.78  20 2.78  19 2.78
  11  0.000  0.500  0.500-  21 2.77  22 2.77  31 2.78  35 2.78  32 2.78  36 2.78
  12  0.000  0.000  0.000-  27 2.77  28 2.77  29 2.78  30 2.78  37 2.78  38 2.78
  13  0.500  0.500  0.500-  21 2.43  22 2.43  19 2.43  20 2.43  17 2.43  18 2.43
  14  0.500  0.000  0.000-  27 2.43  28 2.43  24 2.43  26 2.43  25 2.43  23 2.43
  15  0.000  0.500  0.000-  34 2.43  33 2.43  32 2.43  29 2.43  30 2.43  31 2.43
  16  0.000  0.000  0.500-  40 2.43  39 2.43  38 2.43  36 2.43  37 2.43  35 2.43
  17  0.500  0.734  0.500-  13 2.43   9 2.78
  18  0.500  0.266  0.500-  13 2.43   9 2.78
  19  0.500  0.500  0.734-  13 2.43  10 2.78
  20  0.500  0.500  0.266-  13 2.43  10 2.78
  21  0.734  0.500  0.500-  13 2.43  11 2.77
  22  0.266  0.500  0.500-  13 2.43  11 2.77
  23  0.500  0.234  0.000-  14 2.43  10 2.78
  24  0.500  0.766  0.000-  14 2.43  10 2.78
  25  0.500  0.000  0.234-  14 2.43   9 2.78
  26  0.500  0.000  0.766-  14 2.43   9 2.78
  27  0.734  0.000  0.000-  14 2.43  12 2.77
  28  0.266  0.000  0.000-  14 2.43  12 2.77
  29  0.000  0.734  0.000-  15 2.43  12 2.78
  30  0.000  0.266  0.000-  15 2.43  12 2.78
  31  0.000  0.500  0.234-  15 2.43  11 2.78
  32  0.000  0.500  0.766-  15 2.43  11 2.78
  33  0.234  0.500  0.000-  15 2.43  10 2.77
  34  0.766  0.500  0.000-  15 2.43  10 2.77
  35  0.000  0.234  0.500-  16 2.43  11 2.78
  36  0.000  0.766  0.500-  16 2.43  11 2.78
  37  0.000  0.000  0.734-  16 2.43  12 2.78
  38  0.000  0.000  0.266-  16 2.43  12 2.78
  39  0.234  0.000  0.500-  16 2.43   9 2.77
  40  0.766  0.000  0.500-  16 2.43   9 2.77
 
  LATTYP: Found a simple tetragonal cell.
 ALAT       =    10.4194141030
 C/A-ratio  =     0.9975870131
  
  Lattice vectors:
  
 A1 = (   0.0000000000,  10.4194141030,   0.0000000000)
 A2 = (   0.0000000000,   0.0000000000, -10.4194141030)
 A3 = ( -10.3942721929,   0.0000000000,   0.0000000000)


Analysis of symmetry for initial positions (statically):
=====================================================================
 Subroutine PRICEL returns following result:
 
  LATTYP: Found a body centered tetragonal cell.
 ALAT       =     7.3676383682
 C/A-ratio  =     1.4108010835
  
  Lattice vectors:
  
 A1 = (   5.1971360964,   0.0000000000,  -5.2097070515)
 A2 = (   5.1971360964,   0.0000000000,   5.2097070515)
 A3 = (  -5.1971360964,  -5.2097070515,   0.0000000000)
 
   4 primitive cells build up your supercell.
 

 Routine SETGRP: Setting up the symmetry group for a 
 simple tetragonal supercell.


 Subroutine GETGRP returns: Found 16 space group operations
 (whereof 16 operations were pure point group operations)
 out of a pool of 16 trial point group operations.


The static configuration has the point symmetry D_4h.


Analysis of symmetry for dynamics (positions and initial velocities):
=====================================================================
 Subroutine PRICEL returns following result:
 
  LATTYP: Found a body centered tetragonal cell.
 ALAT       =     7.3676383682
 C/A-ratio  =     1.4108010835
  
  Lattice vectors:
  
 A1 = (   5.1971360964,   0.0000000000,  -5.2097070515)
 A2 = (   5.1971360964,   0.0000000000,   5.2097070515)
 A3 = (  -5.1971360964,  -5.2097070515,   0.0000000000)
 
   4 primitive cells build up your supercell.
 

 Routine SETGRP: Setting up the symmetry group for a 
 simple tetragonal supercell.


 Subroutine GETGRP returns: Found 16 space group operations
 (whereof 16 operations were pure point group operations)
 out of a pool of 16 trial point group operations.


The dynamic configuration has the point symmetry D_4h.


Analysis of structural, dynamic, and magnetic symmetry:
=====================================================================
 Subroutine PRICEL returns following result:
 
  LATTYP: Found a body centered tetragonal cell.
 ALAT       =     7.3676383682
 C/A-ratio  =     1.4108010835
  
  Lattice vectors:
  
 A1 = (   5.1971360964,   0.0000000000,  -5.2097070515)
 A2 = (   5.1971360964,   0.0000000000,   5.2097070515)
 A3 = (  -5.1971360964,  -5.2097070515,   0.0000000000)
 
   4 primitive cells build up your supercell.
 

 Routine SETGRP: Setting up the symmetry group for a 
 simple tetragonal supercell.


 Subroutine GETGRP returns: Found 16 space group operations
 (whereof 16 operations were pure point group operations)
 out of a pool of 16 trial point group operations.


The magnetic configuration has the point symmetry D_4h.


 Subroutine INISYM returns: Found 16 space group operations
 (whereof 16 operations are pure point group operations),
 and found     4 'primitive' translations

 
 

Automatic generation of k-mesh.
 generate k-points for:    7    7    7
Space group operators:
 irot       det(A)        alpha          n_x          n_y          n_z        tau_x        tau_y        tau_z
    1     1.000000     0.000000     1.000000     0.000000     0.000000     0.000000     0.000000     0.000000
    2    -1.000000     0.000000     1.000000     0.000000     0.000000     0.000000     0.000000     0.000000
    3     1.000000    90.000000     1.000000     0.000000     0.000000     0.000000     0.000000     0.000000
    4    -1.000000    90.000000     1.000000     0.000000     0.000000     0.000000     0.000000     0.000000
    5     1.000000   180.000000     1.000000     0.000000     0.000000     0.000000     0.000000     0.000000
    6    -1.000000   180.000000     1.000000     0.000000     0.000000     0.000000     0.000000     0.000000
    7     1.000000    90.000000    -1.000000     0.000000     0.000000     0.000000     0.000000     0.000000
    8    -1.000000    90.000000    -1.000000     0.000000     0.000000     0.000000     0.000000     0.000000
    9     1.000000   180.000000     0.000000     0.000000     1.000000     0.000000     0.000000     0.000000
   10    -1.000000   180.000000     0.000000     0.000000     1.000000     0.000000     0.000000     0.000000
   11     1.000000   180.000000     0.000000    -0.707107     0.707107     0.000000     0.000000     0.000000
   12    -1.000000   180.000000     0.000000    -0.707107     0.707107     0.000000     0.000000     0.000000
   13     1.000000   180.000000     0.000000     1.000000     0.000000     0.000000     0.000000     0.000000
   14    -1.000000   180.000000     0.000000     1.000000     0.000000     0.000000     0.000000     0.000000
   15     1.000000   180.000000     0.000000     0.707107     0.707107     0.000000     0.000000     0.000000
   16    -1.000000   180.000000     0.000000     0.707107     0.707107     0.000000     0.000000     0.000000
 
 Subroutine IBZKPT returns following result:
 ===========================================
 
 Found     40 irreducible k-points:
 
 Following reciprocal coordinates:
            Coordinates               Weight
  0.000000  0.000000  0.000000      1.000000
  0.142857  0.000000  0.000000      2.000000
  0.285714  0.000000  0.000000      2.000000
  0.428571  0.000000  0.000000      2.000000
  0.000000  0.142857  0.000000      4.000000
  0.142857  0.142857  0.000000      8.000000
  0.285714  0.142857  0.000000      8.000000
  0.428571  0.142857  0.000000      8.000000
  0.000000  0.285714  0.000000      4.000000
  0.142857  0.285714  0.000000      8.000000
  0.285714  0.285714  0.000000      8.000000
  0.428571  0.285714  0.000000      8.000000
  0.000000  0.428571  0.000000      4.000000
  0.142857  0.428571  0.000000      8.000000
  0.285714  0.428571  0.000000      8.000000
  0.428571  0.428571  0.000000      8.000000
  0.000000  0.142857  0.142857      4.000000
  0.142857  0.142857  0.142857      8.000000
  0.285714  0.142857  0.142857      8.000000
  0.428571  0.142857  0.142857      8.000000
  0.000000  0.285714  0.142857      8.000000
  0.142857  0.285714  0.142857     16.000000
  0.285714  0.285714  0.142857     16.000000
  0.428571  0.285714  0.142857     16.000000
  0.000000  0.428571  0.142857      8.000000
  0.142857  0.428571  0.142857     16.000000
  0.285714  0.428571  0.142857     16.000000
  0.428571  0.428571  0.142857     16.000000
  0.000000  0.285714  0.285714      4.000000
  0.142857  0.285714  0.285714      8.000000
  0.285714  0.285714  0.285714      8.000000
  0.428571  0.285714  0.285714      8.000000
  0.000000  0.428571  0.285714      8.000000
  0.142857  0.428571  0.285714     16.000000
  0.285714  0.428571  0.285714     16.000000
  0.428571  0.428571  0.285714     16.000000
  0.000000  0.428571  0.428571      4.000000
  0.142857  0.428571  0.428571      8.000000
  0.285714  0.428571  0.428571      8.000000
  0.428571  0.428571  0.428571      8.000000
 
 Following cartesian coordinates:
            Coordinates               Weight
  0.000000  0.000000  0.000000      1.000000
  0.013744  0.000000  0.000000      2.000000
  0.027488  0.000000  0.000000      2.000000
  0.041231  0.000000  0.000000      2.000000
  0.000000  0.013711  0.000000      4.000000
  0.013744  0.013711  0.000000      8.000000
  0.027488  0.013711  0.000000      8.000000
  0.041231  0.013711  0.000000      8.000000
  0.000000  0.027421  0.000000      4.000000
  0.013744  0.027421  0.000000      8.000000
  0.027488  0.027421  0.000000      8.000000
  0.041231  0.027421  0.000000      8.000000
  0.000000  0.041132  0.000000      4.000000
  0.013744  0.041132  0.000000      8.000000
  0.027488  0.041132  0.000000      8.000000
  0.041231  0.041132  0.000000      8.000000
  0.000000  0.013711  0.013711      4.000000
  0.013744  0.013711  0.013711      8.000000
  0.027488  0.013711  0.013711      8.000000
  0.041231  0.013711  0.013711      8.000000
  0.000000  0.027421  0.013711      8.000000
  0.013744  0.027421  0.013711     16.000000
  0.027488  0.027421  0.013711     16.000000
  0.041231  0.027421  0.013711     16.000000
  0.000000  0.041132  0.013711      8.000000
  0.013744  0.041132  0.013711     16.000000
  0.027488  0.041132  0.013711     16.000000
  0.041231  0.041132  0.013711     16.000000
  0.000000  0.027421  0.027421      4.000000
  0.013744  0.027421  0.027421      8.000000
  0.027488  0.027421  0.027421      8.000000
  0.041231  0.027421  0.027421      8.000000
  0.000000  0.041132  0.027421      8.000000
  0.013744  0.041132  0.027421     16.000000
  0.027488  0.041132  0.027421     16.000000
  0.041231  0.041132  0.027421     16.000000
  0.000000  0.041132  0.041132      4.000000
  0.013744  0.041132  0.041132      8.000000
  0.027488  0.041132  0.041132      8.000000
  0.041231  0.041132  0.041132      8.000000
 

 ----------------------------------------------------------------------------- 
|                                                                             |
|           W    W    AA    RRRRR   N    N  II  N    N   GGGG   !!!           |
|           W    W   A  A   R    R  NN   N  II  NN   N  G    G  !!!           |
|           W    W  A    A  R    R  N N  N  II  N N  N  G       !!!           |
|           W WW W  AAAAAA  RRRRR   N  N N  II  N  N N  G  GGG   !            |
|           WW  WW  A    A  R   R   N   NN  II  N   NN  G    G                |
|           W    W  A    A  R    R  N    N  II  N    N   GGGG   !!!           |
|                                                                             |
|      The number of bands has been changed from the values supplied          |
|      in the INCAR file. This is a result of running the parallel version.   |
|      The orbitals not found in the WAVECAR file will be initialized with    |
|      random numbers, which is usually adequate. For correlated              |
|      calculations, however, you should redo the groundstate calculation.    |
|      I found NBANDS    =      300  now  NBANDS  =     308                   |
|                                                                             |
 ----------------------------------------------------------------------------- 



--------------------------------------------------------------------------------------------------------




 Dimension of arrays:
   k-points           NKPTS =     40   k-points in BZ     NKDIM =     40   number of bands    NBANDS=    308
   number of dos      NEDOS =   8000   number of ions     NIONS =     40
   non local maximal  LDIM  =      6   non local SUM 2l+1 LMDIM =     18
   total plane-waves  NPLWV = 884736
   max r-space proj   IRMAX =      1   max aug-charges    IRDMAX=  39393
   dimension x,y,z NGX =    96 NGY =   96 NGZ =   96
   dimension x,y,z NGXF=   192 NGYF=  192 NGZF=  192
   support grid    NGXF=   192 NGYF=  192 NGZF=  192
   ions per type =               8   4   4  24
 NGX,Y,Z   is equivalent  to a cutoff of  15.35, 15.32, 15.32 a.u.
 NGXF,Y,Z  is equivalent  to a cutoff of  30.71, 30.63, 30.63 a.u.


 I would recommend the setting:
   dimension x,y,z NGX =    91 NGY =   91 NGZ =   91
 SYSTEM =  OPTIC                                   
 POSCAR =  cs2agfecl6                              

 Startparameter for this run:
   NWRITE =      2    write-flag & timer
   PREC   = accura    normal or accurate (medium, high low for compatibility)
   ISTART =      1    job   : 0-new  1-cont  2-samecut
   ICHARG =     11    charge: 1-file 2-atom 10-const
   ISPIN  =      2    spin polarized calculation?
   LNONCOLLINEAR =      F non collinear calculations
   LSORBIT =      F    spin-orbit coupling
   INIWAV =      1    electr: 0-lowe 1-rand  2-diag
   LASPH  =      F    aspherical Exc in radial PAW
   METAGGA=      F    non-selfconsistent MetaGGA calc.

 Electronic Relaxation 1
   ENCUT  =  720.0 eV  52.92 Ry    7.27 a.u.  22.74 22.80 22.80*2*pi/ulx,y,z
   ENINI  =  720.0     initial cutoff
   ENAUG  =  946.2 eV  augmentation charge cutoff
   NELM   =    100;   NELMIN=  2; NELMDL=  0     # of ELM steps 
   EDIFF  = 0.1E-04   stopping-criterion for ELM
   LREAL  =      F    real-space projection
   NLSPLINE    = F    spline interpolate recip. space projectors
   LCOMPAT=      F    compatible to vasp.4.4
   GGA_COMPAT  = T    GGA compatible to vasp.4.4-vasp.4.6
   LMAXPAW     = -100 max onsite density
   LMAXMIX     =    4 max onsite mixed and CHGCAR
   VOSKOWN=      0    Vosko Wilk Nusair interpolation
   ROPT   =    0.00000   0.00000   0.00000   0.00000
 Ionic relaxation
   EDIFFG = 0.1E-03   stopping-criterion for IOM
   NSW    =      0    number of steps for IOM
   NBLOCK =      1;   KBLOCK =      1    inner block; outer block 
   IBRION =     -1    ionic relax: 0-MD 1-quasi-New 2-CG
   NFREE  =      0    steps in history (QN), initial steepest desc. (CG)
   ISIF   =      3    stress and relaxation
   IWAVPR =     10    prediction:  0-non 1-charg 2-wave 3-comb
   ISYM   =      2    0-nonsym 1-usesym 2-fastsym
   LCORR  =      T    Harris-Foulkes like correction to forces

   POTIM  = 0.5000    time-step for ionic-motion
   TEIN   =    0.0    initial temperature
   TEBEG  =    0.0;   TEEND  =   0.0 temperature during run
   SMASS  =  -3.00    Nose mass-parameter (am)
   estimated Nose-frequenzy (Omega)   =  0.10E-29 period in steps =****** mass=  -0.247E-26a.u.
   SCALEE = 1.0000    scale energy and forces
   NPACO  =    256;   APACO  = 16.0  distance and # of slots for P.C.
   PSTRESS=    0.0 pullay stress

  Mass of Ions in am
   POMASS = 132.90107.87 55.85 35.45
  Ionic Valenz
   ZVAL   =   9.00 11.00 16.00  7.00
  Atomic Wigner-Seitz radii
   RWIGS  =  -1.00 -1.00 -1.00 -1.00
  virtual crystal weights 
   VCA    =   1.00  1.00  1.00  1.00
   NELECT =     348.0000    total number of electrons
   NUPDOWN=      -1.0000    fix difference up-down

 DOS related values:
   EMIN   =  10.00;   EMAX   =-10.00  energy-range for DOS
   EFERMI =   0.00
   ISMEAR =     0;   SIGMA  =   0.01  broadening in eV -4-tet -1-fermi 0-gaus

 Electronic relaxation 2 (details)
   IALGO  =     38    algorithm
   LDIAG  =      T    sub-space diagonalisation (order eigenvalues)
   LSUBROT=      F    optimize rotation matrix (better conditioning)
   TURBO    =      0    0=normal 1=particle mesh
   IRESTART =      0    0=no restart 2=restart with 2 vectors
   NREBOOT  =      0    no. of reboots
   NMIN     =      0    reboot dimension
   EREF     =   0.00    reference energy to select bands
   IMIX   =      4    mixing-type and parameters
     AMIX     =   0.40;   BMIX     =  1.00
     AMIX_MAG =   1.60;   BMIX_MAG =  1.00
     AMIN     =   0.10
     WC   =   100.;   INIMIX=   1;  MIXPRE=   1;  MAXMIX= -45

 Intra band minimization:
   WEIMIN = 0.0000     energy-eigenvalue tresh-hold
   EBREAK =  0.81E-08  absolut break condition
   DEPER  =   0.30     relativ break condition  

   TIME   =   0.40     timestep for ELM

  volume/ion in A,a.u.               =      28.21       190.38
  Fermi-wavevector in a.u.,A,eV,Ry     =   1.106049  2.090129 16.644610  1.223344
  Thomas-Fermi vector in A             =   2.242545
 
 Write flags
   LWAVE  =      T    write WAVECAR
   LCHARG =      T    write CHGCAR
   LVTOT  =      F    write LOCPOT, total local potential
   LVHAR  =      F    write LOCPOT, Hartree potential only
   LELF   =      F    write electronic localiz. function (ELF)
   LORBIT =     11    0 simple, 1 ext, 2 COOP (PROOUT)


 Dipole corrections
   LMONO  =      F    monopole corrections only (constant potential shift)
   LDIPOL =      F    correct potential (dipole corrections)
   IDIPOL =      0    1-x, 2-y, 3-z, 4-all directions 
   EPSILON=  1.0000000 bulk dielectric constant

 LDA+U is selected, type is set to LDAUTYPE =  2
   angular momentum for each species LDAUL =    -1   -1    2   -1
   U (eV)           for each species LDAUU =   0.0  0.0  5.0  0.0
   J (eV)           for each species LDAUJ =   0.0  0.0  0.0  0.0
 Exchange correlation treatment:
   GGA     =    PE    GGA type
   LEXCH   =     8    internal setting for exchange type
   VOSKOWN=      0    Vosko Wilk Nusair interpolation
   LHFCALC =     F    Hartree Fock is set to
   LHFONE  =     F    Hartree Fock one center treatment
   AEXX    =    0.0000 exact exchange contribution

 Linear response parameters
   LEPSILON=     F    determine dielectric tensor
   LRPA    =     T    only Hartree local field effects (RPA)
   LNABLA  =     F    use nabla operator in PAW spheres
   LVEL    =     F    velocity operator in full k-point grid
   LINTERFAST=   F  fast interpolation
   KINTER  =     0    interpolate to denser k-point grid
   CSHIFT  =0.1000    complex shift for real part using Kramers Kronig
   OMEGAMAX=  -1.0    maximum frequency
   DEG_THRESHOLD= 0.2000000E-02 threshold for treating states as degnerate
   RTIME   =    0.100 relaxation time in fs

 Orbital magnetization related:
   ORBITALMAG=     F  switch on orbital magnetization
   LCHIMAG   =     F  perturbation theory with respect to B field
   DQ        =  0.001000  dq finite difference perturbation B field



--------------------------------------------------------------------------------------------------------


 Static calculation
 charge density and potential remain constant during run
 spin polarized calculation
 Variant of blocked Davidson
 Davidson routine will perform the subspace rotation
 perform sub-space diagonalisation
    after iterative eigenvector-optimisation
 no mixing
 using additional bands          134
 reciprocal scheme for non local part
 use partial core corrections
 calculate Harris-corrections to forces 
   (improved forces if not selfconsistent)
 use gradient corrections 
 WARNING: stress and forces are not correct
  (second derivative of E(xc) not defined)
 use of overlap-Matrix (Vanderbilt PP)
 Gauss-broadening in eV      SIGMA  =   0.01


--------------------------------------------------------------------------------------------------------


  energy-cutoff  :      720.00
  volume of cell :     1128.45
      direct lattice vectors                 reciprocal lattice vectors
    10.394272193  0.000000000  0.000000000     0.096206832  0.000000000  0.000000000
     0.000000000 10.419414103  0.000000000     0.000000000  0.095974686  0.000000000
     0.000000000  0.000000000 10.419414103     0.000000000  0.000000000  0.095974686

  length of vectors
    10.394272193 10.419414103 10.419414103     0.096206832  0.095974686  0.095974686


 
 old parameters found on file WAVECAR:
  energy-cutoff  :      720.00
  volume of cell :     1128.45
      direct lattice vectors                 reciprocal lattice vectors
    10.394272193  0.000000000  0.000000000     0.096206832  0.000000000  0.000000000
     0.000000000 10.419414103  0.000000000     0.000000000  0.095974686  0.000000000
     0.000000000  0.000000000 10.419414103     0.000000000  0.000000000  0.095974686

  length of vectors

 
 k-points in units of 2pi/SCALE and weight: read from INCAR                         
   0.00000000  0.00000000  0.00000000       0.003
   0.01374383  0.00000000  0.00000000       0.006
   0.02748767  0.00000000  0.00000000       0.006
   0.04123150  0.00000000  0.00000000       0.006
   0.00000000  0.01371067  0.00000000       0.012
   0.01374383  0.01371067  0.00000000       0.023
   0.02748767  0.01371067  0.00000000       0.023
   0.04123150  0.01371067  0.00000000       0.023
   0.00000000  0.02742134  0.00000000       0.012
   0.01374383  0.02742134  0.00000000       0.023
   0.02748767  0.02742134  0.00000000       0.023
   0.04123150  0.02742134  0.00000000       0.023
   0.00000000  0.04113201  0.00000000       0.012
   0.01374383  0.04113201  0.00000000       0.023
   0.02748767  0.04113201  0.00000000       0.023
   0.04123150  0.04113201  0.00000000       0.023
   0.00000000  0.01371067  0.01371067       0.012
   0.01374383  0.01371067  0.01371067       0.023
   0.02748767  0.01371067  0.01371067       0.023
   0.04123150  0.01371067  0.01371067       0.023
   0.00000000  0.02742134  0.01371067       0.023
   0.01374383  0.02742134  0.01371067       0.047
   0.02748767  0.02742134  0.01371067       0.047
   0.04123150  0.02742134  0.01371067       0.047
   0.00000000  0.04113201  0.01371067       0.023
   0.01374383  0.04113201  0.01371067       0.047
   0.02748767  0.04113201  0.01371067       0.047
   0.04123150  0.04113201  0.01371067       0.047
   0.00000000  0.02742134  0.02742134       0.012
   0.01374383  0.02742134  0.02742134       0.023
   0.02748767  0.02742134  0.02742134       0.023
   0.04123150  0.02742134  0.02742134       0.023
   0.00000000  0.04113201  0.02742134       0.023
   0.01374383  0.04113201  0.02742134       0.047
   0.02748767  0.04113201  0.02742134       0.047
   0.04123150  0.04113201  0.02742134       0.047
   0.00000000  0.04113201  0.04113201       0.012
   0.01374383  0.04113201  0.04113201       0.023
   0.02748767  0.04113201  0.04113201       0.023
   0.04123150  0.04113201  0.04113201       0.023
 
 k-points in reciprocal lattice and weights: read from INCAR                         
   0.00000000  0.00000000  0.00000000       0.003
   0.14285714  0.00000000  0.00000000       0.006
   0.28571429  0.00000000  0.00000000       0.006
   0.42857143  0.00000000  0.00000000       0.006
   0.00000000  0.14285714  0.00000000       0.012
   0.14285714  0.14285714  0.00000000       0.023
   0.28571429  0.14285714  0.00000000       0.023
   0.42857143  0.14285714  0.00000000       0.023
   0.00000000  0.28571429  0.00000000       0.012
   0.14285714  0.28571429  0.00000000       0.023
   0.28571429  0.28571429  0.00000000       0.023
   0.42857143  0.28571429  0.00000000       0.023
   0.00000000  0.42857143  0.00000000       0.012
   0.14285714  0.42857143  0.00000000       0.023
   0.28571429  0.42857143  0.00000000       0.023
   0.42857143  0.42857143  0.00000000       0.023
   0.00000000  0.14285714  0.14285714       0.012
   0.14285714  0.14285714  0.14285714       0.023
   0.28571429  0.14285714  0.14285714       0.023
   0.42857143  0.14285714  0.14285714       0.023
   0.00000000  0.28571429  0.14285714       0.023
   0.14285714  0.28571429  0.14285714       0.047
   0.28571429  0.28571429  0.14285714       0.047
   0.42857143  0.28571429  0.14285714       0.047
   0.00000000  0.42857143  0.14285714       0.023
   0.14285714  0.42857143  0.14285714       0.047
   0.28571429  0.42857143  0.14285714       0.047
   0.42857143  0.42857143  0.14285714       0.047
   0.00000000  0.28571429  0.28571429       0.012
   0.14285714  0.28571429  0.28571429       0.023
   0.28571429  0.28571429  0.28571429       0.023
   0.42857143  0.28571429  0.28571429       0.023
   0.00000000  0.42857143  0.28571429       0.023
   0.14285714  0.42857143  0.28571429       0.047
   0.28571429  0.42857143  0.28571429       0.047
   0.42857143  0.42857143  0.28571429       0.047
   0.00000000  0.42857143  0.42857143       0.012
   0.14285714  0.42857143  0.42857143       0.023
   0.28571429  0.42857143  0.42857143       0.023
   0.42857143  0.42857143  0.42857143       0.023
 
 position of ions in fractional coordinates (direct lattice) 
   0.25000000  0.75000002  0.75000002
   0.75000002  0.25000000  0.25000000
   0.75000002  0.25000000  0.75000002
   0.25000000  0.75000002  0.25000000
   0.75000002  0.75000002  0.25000000
   0.25000000  0.25000000  0.75000002
   0.25000000  0.25000000  0.25000000
   0.75000002  0.75000002  0.75000002
   0.50000000  0.00000000  0.50000000
   0.50000000  0.50000000  0.00000000
   0.00000000  0.50000000  0.50000000
   0.00000000  0.00000000  0.00000000
   0.50000000  0.50000000  0.50000000
   0.50000000  0.00000000  0.00000000
   0.00000000  0.50000000  0.00000000
   0.00000000  0.00000000  0.50000000
   0.50000000  0.73352760  0.50000000
   0.50000000  0.26647240  0.50000000
   0.50000000  0.50000000  0.73352760
   0.50000000  0.50000000  0.26647240
   0.73398566  0.50000000  0.50000000
   0.26601434  0.50000000  0.50000000
   0.50000000  0.23352765  0.00000000
   0.50000000  0.76647240  0.00000000
   0.50000000  0.00000000  0.23352765
   0.50000000  0.00000000  0.76647240
   0.73398566  0.00000000  0.00000000
   0.26601434  0.00000000  0.00000000
   0.00000000  0.73352760  0.00000000
   0.00000000  0.26647240  0.00000000
   0.00000000  0.50000000  0.23352765
   0.00000000  0.50000000  0.76647240
   0.23398570  0.50000000  0.00000000
   0.76601434  0.50000000  0.00000000
   0.00000000  0.23352765  0.50000000
   0.00000000  0.76647240  0.50000000
   0.00000000  0.00000000  0.73352760
   0.00000000  0.00000000  0.26647240
   0.23398570  0.00000000  0.50000000
   0.76601434  0.00000000  0.50000000
 
 position of ions in cartesian coordinates  (Angst):
   2.59856805  7.81456082  7.81456082
   7.79570438  2.60485353  2.60485353
   7.79570438  2.60485353  7.81456082
   2.59856805  7.81456082  2.60485353
   7.79570438  7.81456082  2.60485353
   2.59856805  2.60485353  7.81456082
   2.59856805  2.60485353  2.60485353
   7.79570438  7.81456082  7.81456082
   5.19713610  0.00000000  5.20970705
   5.19713610  5.20970705  0.00000000
   0.00000000  5.20970705  5.20970705
   0.00000000  0.00000000  0.00000000
   5.19713610  5.20970705  5.20970705
   5.19713610  0.00000000  0.00000000
   0.00000000  5.20970705  0.00000000
   0.00000000  0.00000000  5.20970705
   5.19713610  7.64292782  5.20970705
   5.19713610  2.77648628  5.20970705
   5.19713610  5.20970705  7.64292782
   5.19713610  5.20970705  2.77648628
   7.62924671  5.20970705  5.20970705
   2.76502549  5.20970705  5.20970705
   5.19713610  2.43322125  0.00000000
   5.19713610  7.98619333  0.00000000
   5.19713610  0.00000000  2.43322125
   5.19713610  0.00000000  7.98619333
   7.62924671  0.00000000  0.00000000
   2.76502549  0.00000000  0.00000000
   0.00000000  7.64292782  0.00000000
   0.00000000  2.77648628  0.00000000
   0.00000000  5.20970705  2.43322125
   0.00000000  5.20970705  7.98619333
   2.43211109  5.20970705  0.00000000
   7.96216158  5.20970705  0.00000000
   0.00000000  2.43322125  5.20970705
   0.00000000  7.98619333  5.20970705
   0.00000000  0.00000000  7.64292782
   0.00000000  0.00000000  2.77648628
   2.43211109  0.00000000  5.20970705
   7.96216158  0.00000000  5.20970705
 


--------------------------------------------------------------------------------------------------------


 k-point  1 :   0.0000 0.0000 0.0000  plane waves:   49477
 k-point  2 :   0.1429 0.0000 0.0000  plane waves:   49505
 k-point  3 :   0.2857 0.0000 0.0000  plane waves:   49442
 k-point  4 :   0.4286 0.0000 0.0000  plane waves:   49462
 k-point  5 :   0.0000 0.1429 0.0000  plane waves:   49499
 k-point  6 :   0.1429 0.1429 0.0000  plane waves:   49504
 k-point  7 :   0.2857 0.1429 0.0000  plane waves:   49503
 k-point  8 :   0.4286 0.1429 0.0000  plane waves:   49517
 k-point  9 :   0.0000 0.2857 0.0000  plane waves:   49460
 k-point 10 :   0.1429 0.2857 0.0000  plane waves:   49501
 k-point 11 :   0.2857 0.2857 0.0000  plane waves:   49507
 k-point 12 :   0.4286 0.2857 0.0000  plane waves:   49530
 k-point 13 :   0.0000 0.4286 0.0000  plane waves:   49460
 k-point 14 :   0.1429 0.4286 0.0000  plane waves:   49499
 k-point 15 :   0.2857 0.4286 0.0000  plane waves:   49537
 k-point 16 :   0.4286 0.4286 0.0000  plane waves:   49550
 k-point 17 :   0.0000 0.1429 0.1429  plane waves:   49480
 k-point 18 :   0.1429 0.1429 0.1429  plane waves:   49504
 k-point 19 :   0.2857 0.1429 0.1429  plane waves:   49523
 k-point 20 :   0.4286 0.1429 0.1429  plane waves:   49477
 k-point 21 :   0.0000 0.2857 0.1429  plane waves:   49507
 k-point 22 :   0.1429 0.2857 0.1429  plane waves:   49508
 k-point 23 :   0.2857 0.2857 0.1429  plane waves:   49494
 k-point 24 :   0.4286 0.2857 0.1429  plane waves:   49493
 k-point 25 :   0.0000 0.4286 0.1429  plane waves:   49497
 k-point 26 :   0.1429 0.4286 0.1429  plane waves:   49503
 k-point 27 :   0.2857 0.4286 0.1429  plane waves:   49471
 k-point 28 :   0.4286 0.4286 0.1429  plane waves:   49514
 k-point 29 :   0.0000 0.2857 0.2857  plane waves:   49524
 k-point 30 :   0.1429 0.2857 0.2857  plane waves:   49508
 k-point 31 :   0.2857 0.2857 0.2857  plane waves:   49513
 k-point 32 :   0.4286 0.2857 0.2857  plane waves:   49519
 k-point 33 :   0.0000 0.4286 0.2857  plane waves:   49551
 k-point 34 :   0.1429 0.4286 0.2857  plane waves:   49488
 k-point 35 :   0.2857 0.4286 0.2857  plane waves:   49500
 k-point 36 :   0.4286 0.4286 0.2857  plane waves:   49502
 k-point 37 :   0.0000 0.4286 0.4286  plane waves:   49576
 k-point 38 :   0.1429 0.4286 0.4286  plane waves:   49515
 k-point 39 :   0.2857 0.4286 0.4286  plane waves:   49507
 k-point 40 :   0.4286 0.4286 0.4286  plane waves:   49500

 maximum and minimum number of plane-waves per node :     49576    49442

 maximum number of plane-waves:     49576
 maximum index in each direction: 
   IXMAX=   22   IYMAX=   22   IZMAX=   22
   IXMIN=  -23   IYMIN=  -23   IZMIN=  -23

 NGX is ok and might be reduce to  92
 NGY is ok and might be reduce to  92
 NGZ is ok and might be reduce to  92

 serial   3D FFT for wavefunctions
 parallel 3D FFT for charge:
    minimum data exchange during FFTs selected (reduces bandwidth)


 total amount of memory used by VASP on root node  2018402. kBytes
========================================================================

   base      :      30000. kBytes
   nonl-proj :    1174243. kBytes
   fftplans  :      12348. kBytes
   grid      :      96061. kBytes
   one-center:       1244. kBytes
   wavefun   :     704506. kBytes
 
     INWAV:  cpu time   50.0715: real time   82.3841
 initial charge density was supplied:
 number of electron     347.9999882 magnetization       0.0000000
 keeping initial charge density in first step


--------------------------------------------------------------------------------------------------------


 Maximum index for augmentation-charges         1438 (set IRDMAX)


--------------------------------------------------------------------------------------------------------


 First call to EWALD:  gamma=   0.170
 Maximum number of real-space cells 3x 3x 3
 Maximum number of reciprocal cells 3x 3x 3

 FEWALD executed in parallel
    FEWALD:  cpu time    0.0030: real time    0.0031


----------------------------------------- Iteration    1(   1)  ---------------------------------------


    POTLOK:  cpu time    0.5103: real time    0.5209
    SETDIJ:  cpu time    0.0295: real time    0.0313
     EDDAV:  cpu time  909.7468: real time  947.4697
       DOS:  cpu time    0.0048: real time    0.0081
    --------------------------------------------
      LOOP:  cpu time  910.2956: real time  948.0385

 eigenvalue-minimisations  : 63924
 total energy-change (2. order) :-0.1179581E+03  (-0.4597207E+02)
 number of electron     347.9999882 magnetization       0.0000000
 augmentation part      347.9999882 magnetization       0.0000000

 Free energy of the ion-electron system (eV)
  ---------------------------------------------------
  alpha Z        PSCENC =       969.98347222
  Ewald energy   TEWEN  =    -19661.25401993
  -Hartree energ DENC   =    -11236.92390825
  -exchange      EXHF   =         0.00000000
  -V(xc)+E(xc)   XCENC  =       971.01293041
  PAW double counting   =     20246.87494070   -19877.11666252
  entropy T*S    EENTRO =        -0.00000000
  eigenvalues    EBANDS =     -3469.68912251
  atomic energy  EATOM  =     31939.15428920
  Solvation  Ediel_sol  =         0.00000000
  ---------------------------------------------------
  free energy    TOTEN  =      -117.95808068 eV

  energy without entropy =     -117.95808068  energy(sigma->0) =     -117.95808068


--------------------------------------------------------------------------------------------------------




----------------------------------------- Iteration    1(   2)  ---------------------------------------


     EDDAV:  cpu time  786.1101: real time  819.4594
       DOS:  cpu time    0.0033: real time    0.0033
    --------------------------------------------
      LOOP:  cpu time  786.1156: real time  819.4962

 eigenvalue-minimisations  : 53480
 total energy-change (2. order) :-0.1552185E+02  (-0.1499714E+02)
 number of electron     347.9999882 magnetization       0.0000000
 augmentation part      347.9999882 magnetization       0.0000000

 Free energy of the ion-electron system (eV)
  ---------------------------------------------------
  alpha Z        PSCENC =       969.98347222
  Ewald energy   TEWEN  =    -19661.25401993
  -Hartree energ DENC   =    -11236.92390825
  -exchange      EXHF   =         0.00000000
  -V(xc)+E(xc)   XCENC  =       971.01293041
  PAW double counting   =     20246.87494070   -19877.11666252
  entropy T*S    EENTRO =        -0.00000000
  eigenvalues    EBANDS =     -3485.21097477
  atomic energy  EATOM  =     31939.15428920
  Solvation  Ediel_sol  =         0.00000000
  ---------------------------------------------------
  free energy    TOTEN  =      -133.47993295 eV

  energy without entropy =     -133.47993295  energy(sigma->0) =     -133.47993295


--------------------------------------------------------------------------------------------------------




----------------------------------------- Iteration    1(   3)  ---------------------------------------


     EDDAV:  cpu time  960.2700: real time  987.6638
       DOS:  cpu time    0.0032: real time    0.0032
    --------------------------------------------
      LOOP:  cpu time  960.2754: real time  987.6876

 eigenvalue-minimisations  : 67592
 total energy-change (2. order) :-0.4970246E+00  (-0.4893359E+00)
 number of electron     347.9999882 magnetization       0.0000000
 augmentation part      347.9999882 magnetization       0.0000000

 Free energy of the ion-electron system (eV)
  ---------------------------------------------------
  alpha Z        PSCENC =       969.98347222
  Ewald energy   TEWEN  =    -19661.25401993
  -Hartree energ DENC   =    -11236.92390825
  -exchange      EXHF   =         0.00000000
  -V(xc)+E(xc)   XCENC  =       971.01293041
  PAW double counting   =     20246.87494070   -19877.11666252
  entropy T*S    EENTRO =        -0.00000000
  eigenvalues    EBANDS =     -3485.70799940
  atomic energy  EATOM  =     31939.15428920
  Solvation  Ediel_sol  =         0.00000000
  ---------------------------------------------------
  free energy    TOTEN  =      -133.97695758 eV

  energy without entropy =     -133.97695758  energy(sigma->0) =     -133.97695758


--------------------------------------------------------------------------------------------------------




----------------------------------------- Iteration    1(   4)  ---------------------------------------


     EDDAV:  cpu time 1048.1725: real time 1069.2390
       DOS:  cpu time    0.0033: real time    0.0033
    --------------------------------------------
      LOOP:  cpu time 1048.1780: real time 1069.2781

 eigenvalue-minimisations  : 74452
 total energy-change (2. order) :-0.2294726E-01  (-0.2291549E-01)
 number of electron     347.9999882 magnetization       0.0000000
 augmentation part      347.9999882 magnetization       0.0000000

 Free energy of the ion-electron system (eV)
  ---------------------------------------------------
  alpha Z        PSCENC =       969.98347222
  Ewald energy   TEWEN  =    -19661.25401993
  -Hartree energ DENC   =    -11236.92390825
  -exchange      EXHF   =         0.00000000
  -V(xc)+E(xc)   XCENC  =       971.01293041
  PAW double counting   =     20246.87494070   -19877.11666252
  entropy T*S    EENTRO =        -0.00000000
  eigenvalues    EBANDS =     -3485.73094666
  atomic energy  EATOM  =     31939.15428920
  Solvation  Ediel_sol  =         0.00000000
  ---------------------------------------------------
  free energy    TOTEN  =      -133.99990483 eV

  energy without entropy =     -133.99990483  energy(sigma->0) =     -133.99990483


--------------------------------------------------------------------------------------------------------




----------------------------------------- Iteration    1(   5)  ---------------------------------------


     EDDAV:  cpu time 1034.7705: real time 1041.8412
       DOS:  cpu time    0.0033: real time    0.0033
    --------------------------------------------
      LOOP:  cpu time 1034.7740: real time 1041.8537

 eigenvalue-minimisations  : 72016
 total energy-change (2. order) :-0.3270265E-03  (-0.3269560E-03)
 number of electron     347.9999882 magnetization       0.0000000
 augmentation part      347.9999882 magnetization       0.0000000

 Free energy of the ion-electron system (eV)
  ---------------------------------------------------
  alpha Z        PSCENC =       969.98347222
  Ewald energy   TEWEN  =    -19661.25401993
  -Hartree energ DENC   =    -11236.92390825
  -exchange      EXHF   =         0.00000000
  -V(xc)+E(xc)   XCENC  =       971.01293041
  PAW double counting   =     20246.87494070   -19877.11666252
  entropy T*S    EENTRO =        -0.00000000
  eigenvalues    EBANDS =     -3485.73127368
  atomic energy  EATOM  =     31939.15428920
  Solvation  Ediel_sol  =         0.00000000
  ---------------------------------------------------
  free energy    TOTEN  =      -134.00023186 eV

  energy without entropy =     -134.00023186  energy(sigma->0) =     -134.00023186


--------------------------------------------------------------------------------------------------------




----------------------------------------- Iteration    1(   6)  ---------------------------------------


     EDDAV:  cpu time  973.5710: real time  979.9095
       DOS:  cpu time    0.0025: real time    0.0033
    --------------------------------------------
      LOOP:  cpu time  973.5755: real time  979.9169

 eigenvalue-minimisations  : 66696
 total energy-change (2. order) :-0.8428986E-05  (-0.8428570E-05)
 number of electron     347.9999882 magnetization       0.0000000
 augmentation part      347.9999882 magnetization       0.0000000

 Free energy of the ion-electron system (eV)
  ---------------------------------------------------
  alpha Z        PSCENC =       969.98347222
  Ewald energy   TEWEN  =    -19661.25401993
  -Hartree energ DENC   =    -11236.92390825
  -exchange      EXHF   =         0.00000000
  -V(xc)+E(xc)   XCENC  =       971.01293041
  PAW double counting   =     20246.87494070   -19877.11666252
  entropy T*S    EENTRO =        -0.00000000
  eigenvalues    EBANDS =     -3485.73128211
  atomic energy  EATOM  =     31939.15428920
  Solvation  Ediel_sol  =         0.00000000
  ---------------------------------------------------
  free energy    TOTEN  =      -134.00024029 eV

  energy without entropy =     -134.00024029  energy(sigma->0) =     -134.00024029


--------------------------------------------------------------------------------------------------------




 average (electrostatic) potential at core
  the test charge radii are     1.1312  1.1249  0.7427  0.9406
  (the norm of the test charge is              1.0000)
       1 -48.2742       2 -48.2742       3 -48.2742       4 -48.2742       5 -48.2742
       6 -48.2742       7 -48.2742       8 -48.2742       9 -41.3481      10 -41.3481
      11 -41.3481      12 -41.3481      13-227.4799      14-227.4799      15-227.4799
      16-227.4799      17 -93.2000      18 -93.2000      19 -93.2000      20 -93.2000
      21 -93.2234      22 -93.2234      23 -93.2000      24 -93.2000      25 -93.2000
      26 -93.2000      27 -93.2234      28 -93.2234      29 -93.2000      30 -93.2000
      31 -93.2000      32 -93.2000      33 -93.2234      34 -93.2234      35 -93.2000
      36 -93.2000      37 -93.2000      38 -93.2000      39 -93.2234      40 -93.2234
 
 
 
 E-fermi :   1.1573     XC(G=0):  -8.5337     alpha+bet : -8.3353


 spin component 1

 k-point     1 :       0.0000    0.0000    0.0000
  band No.  band energies     occupation 
      1     -90.7803      1.00000
      2     -90.7803      1.00000
      3     -85.8536      1.00000
      4     -85.8536      1.00000
      5     -56.7421      1.00000
      6     -56.7421      1.00000
      7     -56.7420      1.00000
      8     -56.7420      1.00000
      9     -56.7320      1.00000
     10     -56.7320      1.00000
     11     -51.9252      1.00000
     12     -51.9251      1.00000
     13     -51.9247      1.00000
     14     -51.9247      1.00000
     15     -51.9247      1.00000
     16     -51.9247      1.00000
     17     -18.5588      1.00000
     18     -18.5498      1.00000
     19     -18.5498      1.00000
     20     -18.5496      1.00000
     21     -18.5430      1.00000
     22     -18.5428      1.00000
     23     -18.5428      1.00000
     24     -18.5377      1.00000
     25     -13.2614      1.00000
     26     -13.2090      1.00000
     27     -13.1209      1.00000
     28     -13.0990      1.00000
     29     -12.7831      1.00000
     30     -12.7705      1.00000
     31     -12.7618      1.00000
     32     -12.7618      1.00000
     33     -12.7608      1.00000
     34     -12.7608      1.00000
     35     -12.7444      1.00000
     36     -12.7381      1.00000
     37     -12.7024      1.00000
     38     -12.6848      1.00000
     39     -12.6718      1.00000
     40     -12.6541      1.00000
     41     -12.6541      1.00000
     42     -12.6527      1.00000
     43     -12.6527      1.00000
     44     -12.6288      1.00000
     45     -12.5513      1.00000
     46     -12.5391      1.00000
     47     -12.5096      1.00000
     48     -12.4775      1.00000
     49      -5.8263      1.00000
     50      -5.7916      1.00000
     51      -5.7798      1.00000
     52      -5.7798      1.00000
     53      -5.7763      1.00000
     54      -5.7663      1.00000
     55      -5.7499      1.00000
     56      -5.7162      1.00000
     57      -5.7038      1.00000
     58      -5.7038      1.00000
     59      -5.5223      1.00000
     60      -5.5223      1.00000
     61      -5.5135      1.00000
     62      -5.4671      1.00000
     63      -5.4669      1.00000
     64      -5.4669      1.00000
     65      -5.4659      1.00000
     66      -5.4650      1.00000
     67      -5.4650      1.00000
     68      -5.4505      1.00000
     69      -5.4505      1.00000
     70      -5.4484      1.00000
     71      -5.3895      1.00000
     72      -5.3707      1.00000
     73      -5.3707      1.00000
     74      -5.3668      1.00000
     75      -5.3668      1.00000
     76      -5.3642      1.00000
     77      -5.3568      1.00000
     78      -5.3550      1.00000
     79      -5.3467      1.00000
     80      -5.3364      1.00000
     81      -5.3360      1.00000
     82      -5.3348      1.00000
     83      -4.1044      1.00000
     84      -3.8163      1.00000
     85      -3.6521      1.00000
     86      -3.5692      1.00000
     87      -2.5677      1.00000
     88      -2.5478      1.00000
     89      -2.4937      1.00000
     90      -2.4128      1.00000
     91      -2.2846      1.00000
     92      -2.2846      1.00000
     93      -2.2772      1.00000
     94      -2.2635      1.00000
     95      -2.2218      1.00000
     96      -2.2218      1.00000
     97      -2.1518      1.00000
     98      -2.1432      1.00000
     99      -2.1432      1.00000
    100      -1.9936      1.00000
    101      -1.9936      1.00000
    102      -1.9839      1.00000
    103      -1.9746      1.00000
    104      -1.9500      1.00000
    105      -1.9500      1.00000
    106      -1.7429      1.00000
    107      -1.7214      1.00000
    108      -1.6791      1.00000
    109      -1.6311      1.00000
    110      -1.6311      1.00000
    111      -1.6161      1.00000
    112      -1.5763      1.00000
    113      -1.3858      1.00000
    114      -1.3661      1.00000
    115      -1.3661      1.00000
    116      -1.3598      1.00000
    117      -1.3598      1.00000
    118      -1.3310      1.00000
    119      -1.2386      1.00000
    120      -1.0889      1.00000
    121      -1.0889      1.00000
    122      -1.0847      1.00000
    123      -1.0847      1.00000
    124      -0.9725      1.00000
    125      -0.9725      1.00000
    126      -0.9669      1.00000
    127      -0.8947      1.00000
    128      -0.7115      1.00000
    129      -0.6600      1.00000
    130      -0.6600      1.00000
    131      -0.6559      1.00000
    132      -0.6559      1.00000
    133      -0.6515      1.00000
    134      -0.5845      1.00000
    135      -0.5845      1.00000
    136      -0.5812      1.00000
    137      -0.5521      1.00000
    138      -0.5521      1.00000
    139      -0.5502      1.00000
    140      -0.5502      1.00000
    141      -0.5463      1.00000
    142      -0.5396      1.00000
    143      -0.4496      1.00000
    144      -0.4496      1.00000
    145      -0.4400      1.00000
    146      -0.4285      1.00000
    147      -0.3762      1.00000
    148      -0.3676      1.00000
    149      -0.3457      1.00000
    150      -0.3457      1.00000
    151      -0.3426      1.00000
    152      -0.3426      1.00000
    153      -0.3136      1.00000
    154      -0.3055      1.00000
    155      -0.1196      1.00000
    156      -0.1012      1.00000
    157      -0.0948      1.00000
    158      -0.0948      1.00000
    159       0.0690      1.00000
    160       0.0856      1.00000
    161       0.0856      1.00000
    162       0.0859      1.00000
    163       0.0859      1.00000
    164       0.1275      1.00000
    165       0.1529      1.00000
    166       0.1903      1.00000
    167       0.1937      1.00000
    168       0.1937      1.00000
    169       0.2110      1.00000
    170       0.2110      1.00000
    171       0.2368      1.00000
    172       0.4524      1.00000
    173       0.7336      1.00000
    174       1.1076      1.00000
    175       2.5042      0.00000
    176       2.5228      0.00000
    177       2.5724      0.00000
    178       2.5724      0.00000
    179       2.5918      0.00000
    180       2.5918      0.00000
    181       2.6344      0.00000
    182       2.7659      0.00000
    183       3.0075      0.00000
    184       3.2645      0.00000
    185       3.6746      0.00000
    186       5.8543      0.00000
    187       5.9213      0.00000
    188       5.9329      0.00000
    189       6.5391      0.00000
    190       6.6933      0.00000
    191       6.7014      0.00000
    192       6.7981      0.00000
    193       6.7981      0.00000
    194       6.8078      0.00000
    195       7.6752      0.00000
    196       7.6752      0.00000
    197       7.6814      0.00000
    198       7.9255      0.00000
    199       7.9255      0.00000
    200       7.9419      0.00000
    201       7.9828      0.00000
    202       8.0185      0.00000
    203       8.0350      0.00000
    204       8.0350      0.00000
    205       8.1241      0.00000
    206       8.1782      0.00000
    207       8.2090      0.00000
    208       8.2090      0.00000
    209       8.2185      0.00000
    210       8.2185      0.00000
    211       8.2762      0.00000
    212       8.2900      0.00000
    213       8.3979      0.00000
    214       8.3981      0.00000
    215       8.4006      0.00000
    216       8.4121      0.00000
    217       8.4172      0.00000
    218       8.4188      0.00000
    219       8.6108      0.00000
    220       8.6203      0.00000
    221       8.6203      0.00000
    222       8.7350      0.00000
    223       8.9366      0.00000
    224       8.9436      0.00000
    225       8.9501      0.00000
    226       9.3762      0.00000
    227       9.3762      0.00000
    228       9.3944      0.00000
    229       9.4874      0.00000
    230       9.4874      0.00000
    231       9.4916      0.00000
    232       9.4984      0.00000
    233       9.5037      0.00000
    234       9.5037      0.00000
    235       9.5108      0.00000
    236       9.5108      0.00000
    237       9.5187      0.00000
    238       9.5285      0.00000
    239       9.5285      0.00000
    240       9.5350      0.00000
    241       9.6146      0.00000
    242       9.6341      0.00000
    243       9.6341      0.00000
    244       9.6807      0.00000
    245       9.6807      0.00000
    246       9.7010      0.00000
    247       9.7883      0.00000
    248       9.8064      0.00000
    249      10.1244      0.00000
    250      10.2342      0.00000
    251      10.2342      0.00000
    252      10.2604      0.00000
    253      10.3317      0.00000
    254      10.3457      0.00000
    255      10.3457      0.00000
    256      10.3627      0.00000
    257      10.3703      0.00000
    258      10.3703      0.00000
    259      10.3763      0.00000
    260      10.3825      0.00000
    261      10.3825      0.00000
    262      10.6593      0.00000
    263      10.6593      0.00000
    264      10.6707      0.00000
    265      10.8646      0.00000
    266      10.8646      0.00000
    267      10.8876      0.00000
    268      11.1954      0.00000
    269      11.2010      0.00000
    270      11.2158      0.00000
    271      11.2806      0.00000
    272      11.3365      0.00000
    273      11.3365      0.00000
    274      11.4310      0.00000
    275      11.4310      0.00000
    276      11.4854      0.00000
    277      11.5050      0.00000
    278      11.5351      0.00000
    279      11.5351      0.00000
    280      12.0315      0.00000
    281      12.0386      0.00000
    282      12.0386      0.00000
    283      12.0653      0.00000
    284      12.0656      0.00000
    285      12.0790      0.00000
    286      12.0840      0.00000
    287      12.1066      0.00000
    288      12.1203      0.00000
    289      12.1206      0.00000
    290      12.1530      0.00000
    291      12.1535      0.00000
    292      12.1596      0.00000
    293      12.1690      0.00000
    294      12.1808      0.00000
    295      12.1809      0.00000
    296      12.1888      0.00000
    297      12.2524      0.00000
    298      12.6650      0.00000
    299      12.6662      0.00000
    300      12.6933      0.00000
    301      12.8011      0.00000
    302      12.8144      0.00000
    303      12.8301      0.00000
    304      13.0633      0.00000
    305      13.0711      0.00000
    306      13.1226      0.00000
    307      13.6043      0.00000
    308      13.7039      0.00000

 k-point     2 :       0.1429    0.0000    0.0000
  band No.  band energies     occupation 
      1     -90.7803      1.00000
      2     -90.7803      1.00000
      3     -85.8536      1.00000
      4     -85.8536      1.00000
      5     -56.7421      1.00000
      6     -56.7421      1.00000
      7     -56.7420      1.00000
      8     -56.7420      1.00000
      9     -56.7320      1.00000
     10     -56.7320      1.00000
     11     -51.9251      1.00000
     12     -51.9251      1.00000
     13     -51.9247      1.00000
     14     -51.9247      1.00000
     15     -51.9247      1.00000
     16     -51.9247      1.00000
     17     -18.5583      1.00000
     18     -18.5501      1.00000
     19     -18.5495      1.00000
     20     -18.5495      1.00000
     21     -18.5432      1.00000
     22     -18.5432      1.00000
     23     -18.5427      1.00000
     24     -18.5380      1.00000
     25     -13.2588      1.00000
     26     -13.2071      1.00000
     27     -13.1234      1.00000
     28     -13.0966      1.00000
     29     -12.7945      1.00000
     30     -12.7759      1.00000
     31     -12.7617      1.00000
     32     -12.7617      1.00000
     33     -12.7607      1.00000
     34     -12.7607      1.00000
     35     -12.7598      1.00000
     36     -12.7333      1.00000
     37     -12.6918      1.00000
     38     -12.6710      1.00000
     39     -12.6698      1.00000
     40     -12.6542      1.00000
     41     -12.6542      1.00000
     42     -12.6528      1.00000
     43     -12.6528      1.00000
     44     -12.6288      1.00000
     45     -12.5525      1.00000
     46     -12.5408      1.00000
     47     -12.5104      1.00000
     48     -12.4775      1.00000
     49      -5.8264      1.00000
     50      -5.7892      1.00000
     51      -5.7770      1.00000
     52      -5.7770      1.00000
     53      -5.7714      1.00000
     54      -5.7631      1.00000
     55      -5.7499      1.00000
     56      -5.7160      1.00000
     57      -5.7043      1.00000
     58      -5.7043      1.00000
     59      -5.5250      1.00000
     60      -5.5250      1.00000
     61      -5.5097      1.00000
     62      -5.4660      1.00000
     63      -5.4660      1.00000
     64      -5.4623      1.00000
     65      -5.4623      1.00000
     66      -5.4621      1.00000
     67      -5.4603      1.00000
     68      -5.4467      1.00000
     69      -5.4467      1.00000
     70      -5.4438      1.00000
     71      -5.3870      1.00000
     72      -5.3752      1.00000
     73      -5.3752      1.00000
     74      -5.3702      1.00000
     75      -5.3702      1.00000
     76      -5.3690      1.00000
     77      -5.3586      1.00000
     78      -5.3572      1.00000
     79      -5.3527      1.00000
     80      -5.3460      1.00000
     81      -5.3386      1.00000
     82      -5.3364      1.00000
     83      -4.0803      1.00000
     84      -3.8002      1.00000
     85      -3.6534      1.00000
     86      -3.5508      1.00000
     87      -2.5902      1.00000
     88      -2.5620      1.00000
     89      -2.5233      1.00000
     90      -2.4128      1.00000
     91      -2.3822      1.00000
     92      -2.3717      1.00000
     93      -2.2847      1.00000
     94      -2.2847      1.00000
     95      -2.2170      1.00000
     96      -2.2170      1.00000
     97      -2.1469      1.00000
     98      -2.1442      1.00000
     99      -2.1442      1.00000
    100      -2.0442      1.00000
    101      -1.9807      1.00000
    102      -1.9807      1.00000
    103      -1.9652      1.00000
    104      -1.9572      1.00000
    105      -1.9572      1.00000
    106      -1.7429      1.00000
    107      -1.6219      1.00000
    108      -1.6219      1.00000
    109      -1.6170      1.00000
    110      -1.5993      1.00000
    111      -1.5905      1.00000
    112      -1.5055      1.00000
    113      -1.3803      1.00000
    114      -1.3713      1.00000
    115      -1.3713      1.00000
    116      -1.3668      1.00000
    117      -1.3668      1.00000
    118      -1.3294      1.00000
    119      -1.2435      1.00000
    120      -1.1872      1.00000
    121      -1.1872      1.00000
    122      -1.0879      1.00000
    123      -1.0879      1.00000
    124      -0.9864      1.00000
    125      -0.8955      1.00000
    126      -0.8711      1.00000
    127      -0.8711      1.00000
    128      -0.7164      1.00000
    129      -0.7164      1.00000
    130      -0.7100      1.00000
    131      -0.6429      1.00000
    132      -0.6246      1.00000
    133      -0.6246      1.00000
    134      -0.6069      1.00000
    135      -0.6069      1.00000
    136      -0.5849      1.00000
    137      -0.5846      1.00000
    138      -0.5439      1.00000
    139      -0.5420      1.00000
    140      -0.5420      1.00000
    141      -0.5337      1.00000
    142      -0.5337      1.00000
    143      -0.4970      1.00000
    144      -0.4498      1.00000
    145      -0.4218      1.00000
    146      -0.4101      1.00000
    147      -0.4101      1.00000
    148      -0.3355      1.00000
    149      -0.3355      1.00000
    150      -0.3246      1.00000
    151      -0.3246      1.00000
    152      -0.2987      1.00000
    153      -0.2784      1.00000
    154      -0.2294      1.00000
    155      -0.1518      1.00000
    156      -0.1196      1.00000
    157      -0.0937      1.00000
    158      -0.0937      1.00000
    159       0.0681      1.00000
    160       0.0765      1.00000
    161       0.0765      1.00000
    162       0.0801      1.00000
    163       0.0801      1.00000
    164       0.1263      1.00000
    165       0.1531      1.00000
    166       0.1756      1.00000
    167       0.1756      1.00000
    168       0.1883      1.00000
    169       0.1883      1.00000
    170       0.2366      1.00000
    171       0.3111      1.00000
    172       0.4575      1.00000
    173       0.7019      1.00000
    174       1.1076      1.00000
    175       2.4907      0.00000
    176       2.5225      0.00000
    177       2.5704      0.00000
    178       2.5704      0.00000
    179       2.5903      0.00000
    180       2.5903      0.00000
    181       2.6343      0.00000
    182       2.7311      0.00000
    183       2.9880      0.00000
    184       3.2645      0.00000
    185       3.7537      0.00000
    186       5.7624      0.00000
    187       5.8393      0.00000
    188       5.9535      0.00000
    189       6.5872      0.00000
    190       6.7432      0.00000
    191       6.7516      0.00000
    192       6.8527      0.00000
    193       6.8527      0.00000
    194       6.8798      0.00000
    195       7.5998      0.00000
    196       7.6040      0.00000
    197       7.7225      0.00000
    198       7.7225      0.00000
    199       7.8628      0.00000
    200       7.9559      0.00000
    201       7.9559      0.00000
    202       8.0069      0.00000
    203       8.0564      0.00000
    204       8.0763      0.00000
    205       8.0763      0.00000
    206       8.1239      0.00000
    207       8.1239      0.00000
    208       8.1791      0.00000
    209       8.1967      0.00000
    210       8.2242      0.00000
    211       8.2242      0.00000
    212       8.3298      0.00000
    213       8.3600      0.00000
    214       8.3973      0.00000
    215       8.4431      0.00000
    216       8.4533      0.00000
    217       8.4549      0.00000
    218       8.5979      0.00000
    219       8.5979      0.00000
    220       8.6037      0.00000
    221       8.6770      0.00000
    222       8.7224      0.00000
    223       8.9236      0.00000
    224       8.9349      0.00000
    225       8.9777      0.00000
    226       9.2813      0.00000
    227       9.2813      0.00000
    228       9.3473      0.00000
    229       9.3473      0.00000
    230       9.3655      0.00000
    231       9.4100      0.00000
    232       9.4100      0.00000
    233       9.4280      0.00000
    234       9.4332      0.00000
    235       9.4395      0.00000
    236       9.5264      0.00000
    237       9.5264      0.00000
    238       9.5619      0.00000
    239       9.5619      0.00000
    240       9.6357      0.00000
    241       9.6521      0.00000
    242       9.6521      0.00000
    243       9.6787      0.00000
    244       9.7150      0.00000
    245       9.7150      0.00000
    246       9.7166      0.00000
    247       9.7288      0.00000
    248       9.8124      0.00000
    249       9.9767      0.00000
    250       9.9767      0.00000
    251      10.2198      0.00000
    252      10.2198      0.00000
    253      10.2553      0.00000
    254      10.2819      0.00000
    255      10.3165      0.00000
    256      10.3402      0.00000
    257      10.3819      0.00000
    258      10.4440      0.00000
    259      10.4440      0.00000
    260      10.5845      0.00000
    261      10.5845      0.00000
    262      10.6420      0.00000
    263      10.7389      0.00000
    264      10.7389      0.00000
    265      10.9389      0.00000
    266      10.9390      0.00000
    267      11.1861      0.00000
    268      11.1945      0.00000
    269      11.1964      0.00000
    270      11.2902      0.00000
    271      11.3777      0.00000
    272      11.3777      0.00000
    273      11.3946      0.00000
    274      11.5049      0.00000
    275      11.5062      0.00000
    276      11.5711      0.00000
    277      11.5712      0.00000
    278      11.5930      0.00000
    279      11.5930      0.00000
    280      11.6419      0.00000
    281      11.7010      0.00000
    282      12.0390      0.00000
    283      12.0394      0.00000
    284      12.0751      0.00000
    285      12.0756      0.00000
    286      12.1257      0.00000
    287      12.1261      0.00000
    288      12.1315      0.00000
    289      12.1445      0.00000
    290      12.1539      0.00000
    291      12.1550      0.00000
    292      12.2403      0.00000
    293      12.2409      0.00000
    294      12.2555      0.00000
    295      12.3203      0.00000
    296      12.5104      0.00000
    297      12.5619      0.00000
    298      12.6604      0.00000
    299      12.6622      0.00000
    300      12.6733      0.00000
    301      12.8767      0.00000
    302      12.8987      0.00000
    303      12.9276      0.00000
    304      12.9507      0.00000
[...]
   97.903808    0.976368    0.976373    0.976373   -0.000000    0.000000   -0.000000
   98.060705    0.976421    0.976398    0.976398   -0.000000    0.000000   -0.000000
   98.217602    0.976447    0.976448    0.976448   -0.000000    0.000000   -0.000000
   98.374499    0.976493    0.976507    0.976507   -0.000000    0.000000   -0.000000
   98.531396    0.976578    0.976589    0.976589   -0.000000    0.000000   -0.000000
   98.688293    0.976642    0.976649    0.976649   -0.000000    0.000000   -0.000000
   98.845190    0.976733    0.976742    0.976742   -0.000000    0.000000   -0.000000
   99.002088    0.976822    0.976826    0.976826   -0.000000    0.000000   -0.000000
   99.158985    0.976906    0.976911    0.976911   -0.000000    0.000000   -0.000000
   99.315882    0.977006    0.977008    0.977008   -0.000000    0.000000   -0.000000
   99.472779    0.977116    0.977120    0.977120   -0.000000    0.000000   -0.000000
   99.629676    0.977211    0.977210    0.977210   -0.000000    0.000000   -0.000000
   99.786573    0.977293    0.977298    0.977298   -0.000000    0.000000   -0.000000
   99.943470    0.977385    0.977391    0.977391   -0.000000    0.000000   -0.000000
  100.100367    0.977499    0.977500    0.977500   -0.000000    0.000000   -0.000000
  100.257265    0.977583    0.977599    0.977599   -0.000000    0.000000   -0.000000
  100.414162    0.977584    0.977603    0.977603   -0.000000    0.000000   -0.000000
  100.571059    0.977629    0.977636    0.977636    0.000000    0.000000   -0.000000
  100.727956    0.977703    0.977715    0.977715    0.000000    0.000000   -0.000000
  100.884853    0.977760    0.977771    0.977771    0.000000    0.000000   -0.000000
  101.041750    0.977791    0.977773    0.977773   -0.000000    0.000000   -0.000000
  101.198647    0.977800    0.977780    0.977780    0.000000    0.000000   -0.000000
  101.355545    0.977786    0.977801    0.977801   -0.000000    0.000000   -0.000000
  101.512442    0.977891    0.977855    0.977855   -0.000000    0.000000   -0.000000
  101.669339    0.977962    0.977957    0.977957   -0.000000    0.000000   -0.000000
  101.826236    0.977979    0.977991    0.977991   -0.000000    0.000000   -0.000000
  101.983133    0.978043    0.978071    0.978071   -0.000000    0.000000   -0.000000
  102.140030    0.978142    0.978163    0.978163   -0.000000    0.000000   -0.000000
  102.296927    0.978233    0.978245    0.978245   -0.000000    0.000000   -0.000000
  102.453824    0.978330    0.978331    0.978331   -0.000000    0.000000   -0.000000
  102.610722    0.978415    0.978411    0.978411   -0.000000    0.000000   -0.000000
  102.767619    0.978448    0.978441    0.978441   -0.000000    0.000000   -0.000000
  102.924516    0.978445    0.978471    0.978471   -0.000000    0.000000   -0.000000
  103.081413    0.978487    0.978503    0.978503   -0.000000    0.000000   -0.000000
  103.238310    0.978565    0.978554    0.978554   -0.000000    0.000000   -0.000000
  103.395207    0.978645    0.978638    0.978638   -0.000000    0.000000   -0.000000
  103.552104    0.978714    0.978708    0.978708   -0.000000    0.000000   -0.000000
  103.709001    0.978775    0.978775    0.978775   -0.000000    0.000000   -0.000000
  103.865899    0.978844    0.978854    0.978854   -0.000000    0.000000   -0.000000
  104.022796    0.978909    0.978917    0.978917   -0.000000    0.000000   -0.000000
  104.179693    0.978982    0.978984    0.978984   -0.000000    0.000000   -0.000000
  104.336590    0.979048    0.979053    0.979053   -0.000000    0.000000   -0.000000
  104.493487    0.979130    0.979133    0.979133   -0.000000    0.000000   -0.000000
  104.650384    0.979209    0.979212    0.979212   -0.000000    0.000000   -0.000000
  104.807281    0.979285    0.979289    0.979289   -0.000000    0.000000   -0.000000
  104.964178    0.979358    0.979362    0.979362   -0.000000    0.000000   -0.000000
  105.121076    0.979430    0.979433    0.979433   -0.000000    0.000000   -0.000000
  105.277973    0.979499    0.979503    0.979503   -0.000000    0.000000   -0.000000
  105.434870    0.979568    0.979571    0.979571   -0.000000    0.000000   -0.000000
  105.591767    0.979636    0.979639    0.979639   -0.000000    0.000000   -0.000000
  105.748664    0.979702    0.979706    0.979706   -0.000000    0.000000   -0.000000
  105.905561    0.979768    0.979772    0.979772   -0.000000    0.000000   -0.000000
  106.062458    0.979834    0.979837    0.979837   -0.000000    0.000000   -0.000000
  106.219355    0.979899    0.979902    0.979902   -0.000000    0.000000   -0.000000
  106.376253    0.979963    0.979966    0.979966   -0.000000    0.000000   -0.000000
  106.533150    0.980027    0.980030    0.980030   -0.000000    0.000000   -0.000000
  106.690047    0.980090    0.980093    0.980093   -0.000000    0.000000   -0.000000
  106.846944    0.980152    0.980156    0.980156   -0.000000    0.000000   -0.000000
  107.003841    0.980215    0.980218    0.980218   -0.000000    0.000000   -0.000000
  107.160738    0.980277    0.980280    0.980280   -0.000000    0.000000   -0.000000
  107.317635    0.980338    0.980341    0.980341   -0.000000    0.000000   -0.000000
  107.474532    0.980399    0.980402    0.980402   -0.000000    0.000000   -0.000000
  107.631430    0.980460    0.980463    0.980463   -0.000000    0.000000   -0.000000
  107.788327    0.980520    0.980523    0.980523   -0.000000    0.000000   -0.000000
  107.945224    0.980580    0.980583    0.980583   -0.000000    0.000000   -0.000000
  108.102121    0.980640    0.980643    0.980643   -0.000000    0.000000   -0.000000
  108.259018    0.980699    0.980702    0.980702   -0.000000    0.000000   -0.000000
  108.415915    0.980758    0.980761    0.980761   -0.000000    0.000000   -0.000000
  108.572812    0.980816    0.980820    0.980820   -0.000000    0.000000   -0.000000
  108.729710    0.980875    0.980878    0.980878   -0.000000    0.000000   -0.000000
  108.886607    0.980933    0.980936    0.980936   -0.000000    0.000000   -0.000000
  109.043504    0.980990    0.980994    0.980994   -0.000000    0.000000   -0.000000
  109.200401    0.981048    0.981051    0.981051   -0.000000    0.000000   -0.000000
  109.357298    0.981105    0.981108    0.981108   -0.000000    0.000000   -0.000000
  109.514195    0.981161    0.981165    0.981165   -0.000000    0.000000   -0.000000
  109.671092    0.981218    0.981221    0.981221   -0.000000    0.000000   -0.000000
  109.827989    0.981274    0.981277    0.981277   -0.000000    0.000000   -0.000000
  109.984887    0.981330    0.981333    0.981333   -0.000000    0.000000   -0.000000
  110.141784    0.981385    0.981389    0.981389   -0.000000    0.000000   -0.000000
  110.298681    0.981441    0.981444    0.981444   -0.000000    0.000000   -0.000000
  110.455578    0.981496    0.981499    0.981499   -0.000000    0.000000   -0.000000
  110.612475    0.981550    0.981554    0.981554   -0.000000    0.000000   -0.000000
  110.769372    0.981605    0.981608    0.981608   -0.000000    0.000000   -0.000000
  110.926269    0.981659    0.981662    0.981662   -0.000000    0.000000   -0.000000
  111.083166    0.981713    0.981716    0.981716   -0.000000    0.000000   -0.000000
  111.240064    0.981767    0.981770    0.981770   -0.000000    0.000000   -0.000000
  111.396961    0.981820    0.981823    0.981823   -0.000000    0.000000   -0.000000
  111.553858    0.981873    0.981876    0.981876   -0.000000    0.000000   -0.000000
  111.710755    0.981926    0.981929    0.981929   -0.000000    0.000000   -0.000000
  111.867652    0.981979    0.981982    0.981982   -0.000000    0.000000   -0.000000
  112.024549    0.982031    0.982035    0.982035   -0.000000    0.000000   -0.000000
  112.181446    0.982083    0.982087    0.982087   -0.000000    0.000000   -0.000000
  112.338343    0.982135    0.982139    0.982139   -0.000000    0.000000   -0.000000
  112.495241    0.982187    0.982190    0.982190   -0.000000    0.000000   -0.000000
  112.652138    0.982239    0.982242    0.982242   -0.000000    0.000000   -0.000000
  112.809035    0.982290    0.982293    0.982293   -0.000000    0.000000   -0.000000
  112.965932    0.982341    0.982344    0.982344   -0.000000    0.000000   -0.000000
  113.122829    0.982392    0.982395    0.982395   -0.000000    0.000000   -0.000000
  113.279726    0.982442    0.982445    0.982445   -0.000000    0.000000   -0.000000
  113.436623    0.982492    0.982495    0.982495   -0.000000    0.000000   -0.000000
  113.593520    0.982542    0.982546    0.982546   -0.000000    0.000000   -0.000000
  113.750418    0.982592    0.982595    0.982595   -0.000000    0.000000   -0.000000
  113.907315    0.982642    0.982645    0.982645   -0.000000    0.000000   -0.000000
  114.064212    0.982691    0.982694    0.982694   -0.000000    0.000000   -0.000000
  114.221109    0.982740    0.982743    0.982743   -0.000000    0.000000   -0.000000
  114.378006    0.982789    0.982792    0.982792   -0.000000    0.000000   -0.000000
  114.534903    0.982838    0.982841    0.982841   -0.000000    0.000000   -0.000000
  114.691800    0.982887    0.982890    0.982890   -0.000000    0.000000   -0.000000
  114.848697    0.982935    0.982938    0.982938   -0.000000    0.000000   -0.000000
  115.005595    0.982983    0.982986    0.982986   -0.000000    0.000000   -0.000000
  115.162492    0.983031    0.983034    0.983034   -0.000000    0.000000   -0.000000
  115.319389    0.983078    0.983082    0.983082   -0.000000    0.000000   -0.000000
  115.476286    0.983126    0.983129    0.983129   -0.000000    0.000000   -0.000000
  115.633183    0.983173    0.983176    0.983176   -0.000000    0.000000   -0.000000
  115.790080    0.983220    0.983223    0.983223   -0.000000    0.000000   -0.000000
  115.946977    0.983267    0.983270    0.983270   -0.000000    0.000000   -0.000000
  116.103875    0.983314    0.983317    0.983317   -0.000000    0.000000   -0.000000
  116.260772    0.983360    0.983363    0.983363   -0.000000    0.000000   -0.000000
  116.417669    0.983406    0.983409    0.983409   -0.000000    0.000000   -0.000000
  116.574566    0.983452    0.983455    0.983455   -0.000000    0.000000   -0.000000
  116.731463    0.983498    0.983501    0.983501   -0.000000    0.000000   -0.000000
  116.888360    0.983544    0.983547    0.983547   -0.000000    0.000000   -0.000000
  117.045257    0.983589    0.983592    0.983592   -0.000000    0.000000   -0.000000
  117.202154    0.983634    0.983637    0.983637   -0.000000    0.000000   -0.000000
  117.359052    0.983679    0.983682    0.983682   -0.000000    0.000000   -0.000000
  117.515949    0.983724    0.983727    0.983727   -0.000000    0.000000   -0.000000
  117.672846    0.983769    0.983772    0.983772   -0.000000    0.000000   -0.000000
  117.829743    0.983813    0.983816    0.983816   -0.000000    0.000000   -0.000000
  117.986640    0.983858    0.983861    0.983861   -0.000000    0.000000   -0.000000
  118.143537    0.983902    0.983905    0.983905   -0.000000    0.000000   -0.000000
  118.300434    0.983946    0.983949    0.983949   -0.000000    0.000000   -0.000000
  118.457331    0.983989    0.983992    0.983992   -0.000000    0.000000   -0.000000
  118.614229    0.984033    0.984036    0.984036   -0.000000    0.000000   -0.000000
  118.771126    0.984076    0.984079    0.984079   -0.000000    0.000000   -0.000000
  118.928023    0.984120    0.984123    0.984123   -0.000000    0.000000   -0.000000
  119.084920    0.984163    0.984166    0.984166   -0.000000    0.000000   -0.000000
  119.241817    0.984205    0.984208    0.984208   -0.000000    0.000000   -0.000000
  119.398714    0.984248    0.984251    0.984251   -0.000000    0.000000   -0.000000
  119.555611    0.984291    0.984293    0.984293   -0.000000    0.000000   -0.000000
  119.712508    0.984333    0.984336    0.984336   -0.000000    0.000000   -0.000000
  119.869406    0.984375    0.984378    0.984378   -0.000000    0.000000   -0.000000
  120.026303    0.984417    0.984420    0.984420   -0.000000    0.000000   -0.000000
  120.183200    0.984459    0.984462    0.984462   -0.000000    0.000000   -0.000000
  120.340097    0.984500    0.984503    0.984503   -0.000000    0.000000   -0.000000
  120.496994    0.984542    0.984545    0.984545   -0.000000    0.000000   -0.000000
  120.653891    0.984583    0.984586    0.984586   -0.000000    0.000000   -0.000000
  120.810788    0.984624    0.984627    0.984627   -0.000000    0.000000   -0.000000
  120.967685    0.984665    0.984668    0.984668   -0.000000    0.000000   -0.000000
  121.124583    0.984706    0.984709    0.984709   -0.000000    0.000000   -0.000000
  121.281480    0.984746    0.984749    0.984749   -0.000000    0.000000   -0.000000
  121.438377    0.984787    0.984790    0.984790   -0.000000    0.000000   -0.000000
  121.595274    0.984827    0.984830    0.984830   -0.000000    0.000000   -0.000000
  121.752171    0.984867    0.984870    0.984870   -0.000000    0.000000   -0.000000
  121.909068    0.984907    0.984910    0.984910   -0.000000    0.000000   -0.000000
  122.065965    0.984947    0.984950    0.984950   -0.000000    0.000000   -0.000000
  122.222862    0.984986    0.984989    0.984989   -0.000000    0.000000   -0.000000
  122.379760    0.985026    0.985029    0.985029   -0.000000    0.000000   -0.000000
  122.536657    0.985065    0.985068    0.985068   -0.000000    0.000000   -0.000000
  122.693554    0.985104    0.985107    0.985107   -0.000000    0.000000   -0.000000
  122.850451    0.985143    0.985146    0.985146   -0.000000    0.000000   -0.000000
  123.007348    0.985182    0.985185    0.985185   -0.000000    0.000000   -0.000000
  123.164245    0.985221    0.985224    0.985224   -0.000000    0.000000   -0.000000
  123.321142    0.985259    0.985262    0.985262   -0.000000    0.000000   -0.000000
  123.478040    0.985298    0.985300    0.985300   -0.000000    0.000000   -0.000000
  123.634937    0.985336    0.985339    0.985339   -0.000000    0.000000   -0.000000
  123.791834    0.985374    0.985377    0.985377   -0.000000    0.000000   -0.000000
  123.948731    0.985412    0.985415    0.985415   -0.000000    0.000000   -0.000000
  124.105628    0.985450    0.985452    0.985452   -0.000000    0.000000   -0.000000
  124.262525    0.985487    0.985490    0.985490   -0.000000    0.000000   -0.000000
  124.419422    0.985525    0.985527    0.985527   -0.000000    0.000000   -0.000000
  124.576319    0.985562    0.985565    0.985565   -0.000000    0.000000   -0.000000
  124.733217    0.985599    0.985602    0.985602   -0.000000    0.000000   -0.000000
  124.890114    0.985636    0.985639    0.985639   -0.000000    0.000000   -0.000000
  125.047011    0.985673    0.985676    0.985676   -0.000000    0.000000   -0.000000
  125.203908    0.985710    0.985712    0.985712   -0.000000    0.000000   -0.000000
  125.360805    0.985746    0.985749    0.985749   -0.000000    0.000000   -0.000000
 
 The outermost node in the dielectric function lies at epsilon=  19.4


--------------------------------------------------------------------------------------------------------


    OPTICS:  cpu time  519.4399: real time  669.8180
    4ORBIT:  cpu time    0.0001: real time    0.0093
 


 total charge     
 
# of ion     s       p       d       tot
----------------------------------------
  1        1.835   4.715   0.022   6.572
  2        1.835   4.715   0.022   6.572
  3        1.835   4.715   0.022   6.572
  4        1.835   4.715   0.022   6.572
  5        1.835   4.715   0.022   6.572
  6        1.835   4.715   0.022   6.572
  7        1.835   4.715   0.022   6.572
  8        1.835   4.715   0.022   6.572
  9        0.149   0.099   9.152   9.399
 10        0.149   0.099   9.152   9.399
 11        0.149   0.099   9.152   9.399
 12        0.149   0.099   9.152   9.399
 13        2.056   5.902   4.942  12.900
 14        2.056   5.902   4.942  12.900
 15        2.056   5.902   4.942  12.900
 16        2.056   5.902   4.942  12.900
 17        1.597   3.534   0.000   5.130
 18        1.597   3.534   0.000   5.130
 19        1.597   3.530   0.000   5.127
 20        1.597   3.530   0.000   5.127
 21        1.597   3.530   0.000   5.127
 22        1.597   3.530   0.000   5.127
 23        1.597   3.534   0.000   5.130
 24        1.597   3.534   0.000   5.130
 25        1.597   3.530   0.000   5.127
 26        1.597   3.530   0.000   5.127
 27        1.597   3.530   0.000   5.127
 28        1.597   3.530   0.000   5.127
 29        1.597   3.534   0.000   5.130
 30        1.597   3.534   0.000   5.130
 31        1.597   3.530   0.000   5.127
 32        1.597   3.530   0.000   5.127
 33        1.597   3.530   0.000   5.127
 34        1.597   3.530   0.000   5.127
 35        1.597   3.534   0.000   5.130
 36        1.597   3.534   0.000   5.130
 37        1.597   3.530   0.000   5.127
 38        1.597   3.530   0.000   5.127
 39        1.597   3.530   0.000   5.127
 40        1.597   3.530   0.000   5.127
------------------------------------------------
tot       61.831 146.469  56.551 264.851
 


 magnetization (x)
 
# of ion     s       p       d       tot
----------------------------------------
  1       -0.000  -0.000   0.000  -0.000
  2       -0.000  -0.000   0.000  -0.000
  3        0.000   0.000  -0.000   0.000
  4        0.000   0.000  -0.000   0.000
  5        0.000   0.000  -0.000   0.000
  6        0.000   0.000  -0.000   0.000
  7       -0.000  -0.000   0.000  -0.000
  8       -0.000  -0.000   0.000  -0.000
  9        0.003   0.002   0.016   0.021
 10        0.003   0.002   0.016   0.021
 11       -0.003  -0.002  -0.016  -0.021
 12       -0.003  -0.002  -0.016  -0.021
 13        0.011   0.011   3.852   3.875
 14        0.011   0.011   3.852   3.875
 15       -0.011  -0.011  -3.852  -3.875
 16       -0.011  -0.011  -3.852  -3.875
 17        0.005   0.077   0.000   0.082
 18        0.005   0.077   0.000   0.082
 19        0.004   0.078   0.000   0.081
 20        0.004   0.078   0.000   0.081
 21        0.004   0.071   0.000   0.075
 22        0.004   0.071   0.000   0.075
 23        0.005   0.077   0.000   0.082
 24        0.005   0.077   0.000   0.082
 25        0.004   0.078   0.000   0.081
 26        0.004   0.078   0.000   0.081
 27        0.004   0.071   0.000   0.075
 28        0.004   0.071   0.000   0.075
 29       -0.005  -0.077   0.000  -0.082
 30       -0.005  -0.077   0.000  -0.082
 31       -0.004  -0.078   0.000  -0.081
 32       -0.004  -0.078   0.000  -0.081
 33       -0.004  -0.071   0.000  -0.075
 34       -0.004  -0.071   0.000  -0.075
 35       -0.005  -0.077   0.000  -0.082
 36       -0.005  -0.077   0.000  -0.082
 37       -0.004  -0.078   0.000  -0.081
 38       -0.004  -0.078   0.000  -0.081
 39       -0.004  -0.071   0.000  -0.075
 40       -0.004  -0.071   0.000  -0.075
------------------------------------------------
tot        0.000   0.000  -0.000   0.000
 

 total amount of memory used by VASP on root node  2018402. kBytes
========================================================================

   base      :      30000. kBytes
   nonl-proj :    1174243. kBytes
   fftplans  :      12348. kBytes
   grid      :      96061. kBytes
   one-center:       1244. kBytes
   wavefun   :     704506. kBytes
 
  
  
 General timing and accounting informations for this job:
 ========================================================
  
                  Total CPU time used (sec):     8543.794
                            User time (sec):     8371.547
                          System time (sec):      172.247
                         Elapsed time (sec):    11270.719
  
                   Maximum memory used (kb):     4660484.
                   Average memory used (kb):           0.
  
                          Minor page faults:      4971638
                          Major page faults:        93226
                 Voluntary context switches:      1047955
