 running on   36 total cores
 distrk:  each k-point on   36 cores,    1 groups
 distr:  one band on    9 cores,    4 groups
 using from now: INCAR     
 vasp.5.4.1 05Feb16 (build Mar 20 2018 11:25:23) complex                        
  
 POSCAR found type information on POSCAR  Sc Se Br Pd O 
 POSCAR found :  5 types and      54 ions
 scaLAPACK will be used

 ----------------------------------------------------------------------------- 
|                                                                             |
|  ADVICE TO THIS USER RUNNING 'VASP/VAMP'   (HEAR YOUR MASTER'S VOICE ...):  |
|                                                                             |
|      You have switched on vdW-DFT.                                          |
|      This routine was written and supplied by Jiri Klimes.                  |
|      We recommed that you carefully read and cite the following             |
|      publication                                                            |
|      J. Klimes, D.R. Bowler, A. Michelides                                  |
|        J. Phys.: Cond Matt. 22 022201 (2010)                                |
|      J. Klimes, D.R. Bowler, A. Michelides                                  |
|        Phys. Rev. B. 83, 195131 (2011)                                      |
|      and references therein.                                                |
|                                                                             |
 ----------------------------------------------------------------------------- 


 ----------------------------------------------------------------------------- 
|                                                                             |
|  ADVICE TO THIS USER RUNNING 'VASP/VAMP'   (HEAR YOUR MASTER'S VOICE ...):  |
|                                                                             |
|      You have a (more or less) 'large supercell' and for larger cells       |
|      it might be more efficient to use real space projection opertators     |
|      So try LREAL= Auto  in the INCAR   file.                               |
|      Mind: At the moment your POTCAR file does not contain real space       |
|       projectors, and has to be modified,  BUT if you                       |
|      want to do an extremely  accurate calculation you might also keep the  |
|      reciprocal projection scheme          (i.e. LREAL=.FALSE.)             |
|                                                                             |
 ----------------------------------------------------------------------------- 


 ----------------------------------------------------------------------------- 
|                                                                             |
|  ADVICE TO THIS USER RUNNING 'VASP/VAMP'   (HEAR YOUR MASTER'S VOICE ...):  |
|                                                                             |
|      You enforced a specific xc-type in the INCAR file,                     |
|      a different type was found on the POTCAR file                          |
|          I HOPE YOU KNOW, WHAT YOU ARE  DOING                               |
|                                                                             |
 ----------------------------------------------------------------------------- 

 LDA part: xc-table for Pade appr. of Perdew
 generate k-points for:    3    7    1
 POSCAR, INCAR and KPOINTS ok, starting setup
 WARNING: small aliasing (wrap around) errors must be expected
 FFT: planning ...
 WAVECAR not read
 entering main loop
       N       E                     dE             d eps       ncg     rms          rms(c)
Total vdW correction in eV:     80.4412835
DAV:   1     0.470970378090E+04    0.47097E+04   -0.16198E+05  4448   0.132E+03
DAV:   2     0.640716799857E+03   -0.40690E+04   -0.39971E+04  5208   0.298E+02
DAV:   3    -0.175965796790E+03   -0.81668E+03   -0.78419E+03  6072   0.162E+02
DAV:   4    -0.248363544243E+03   -0.72398E+02   -0.70512E+02  6544   0.587E+01
DAV:   5    -0.251275420200E+03   -0.29119E+01   -0.27963E+01  6680   0.163E+01    0.841E+01
Total vdW correction in eV:     81.8687731
DAV:   6    -0.203550569736E+03    0.47725E+02   -0.40986E+02  5216   0.565E+01    0.652E+01
Total vdW correction in eV:     81.7615925
DAV:   7    -0.187650962513E+03    0.15900E+02   -0.12604E+02  5880   0.393E+01    0.222E+01
Total vdW correction in eV:     81.6088485
DAV:   8    -0.187426567022E+03    0.22440E+00   -0.23252E+01  5696   0.125E+01    0.969E+00
Total vdW correction in eV:     81.8128294
DAV:   9    -0.187396291653E+03    0.30275E-01   -0.14886E+00  6160   0.351E+00    0.373E+00
Total vdW correction in eV:     81.9586784
DAV:  10    -0.187380231476E+03    0.16060E-01   -0.29786E-01  5632   0.182E+00    0.135E+00
Total vdW correction in eV:     81.9913085
DAV:  11    -0.187366801319E+03    0.13430E-01   -0.58847E-02  5984   0.110E+00    0.771E-01
Total vdW correction in eV:     82.0116950
DAV:  12    -0.187360197640E+03    0.66037E-02   -0.22717E-02  5416   0.514E-01    0.403E-01
Total vdW correction in eV:     82.0399173
DAV:  13    -0.187360473164E+03   -0.27552E-03   -0.96598E-03  5888   0.332E-01    0.234E-01
Total vdW correction in eV:     82.0485438
DAV:  14    -0.187358859120E+03    0.16140E-02   -0.22418E-03  5568   0.152E-01    0.117E-01
Total vdW correction in eV:     82.0471247
DAV:  15    -0.187357993622E+03    0.86550E-03   -0.61377E-04  5264   0.698E-02    0.830E-02
Total vdW correction in eV:     82.0510852
DAV:  16    -0.187356021502E+03    0.19721E-02   -0.44864E-04  4576   0.538E-02    0.492E-02
Total vdW correction in eV:     82.0566563
DAV:  17    -0.187354564426E+03    0.14571E-02   -0.28306E-04  4824   0.443E-02    0.268E-02
Total vdW correction in eV:     82.0574249
DAV:  18    -0.187354297218E+03    0.26721E-03   -0.71942E-05  4592   0.230E-02    0.213E-02
Total vdW correction in eV:     82.0596723
DAV:  19    -0.187353994063E+03    0.30315E-03   -0.75868E-05  3944   0.178E-02    0.993E-03
Total vdW correction in eV:     82.0616791
DAV:  20    -0.187353827131E+03    0.16693E-03   -0.84524E-05  4360   0.170E-02    0.123E-02
Total vdW correction in eV:     82.0618424
DAV:  21    -0.187353803990E+03    0.23141E-04   -0.56817E-06  2680   0.844E-03    0.927E-03
Total vdW correction in eV:     82.0621704
DAV:  22    -0.187353787350E+03    0.16640E-04   -0.51020E-05  3640   0.121E-02    0.398E-03
Total vdW correction in eV:     82.0627595
DAV:  23    -0.187353828107E+03   -0.40757E-04   -0.15967E-04  3760   0.154E-02    0.328E-03
Total vdW correction in eV:     82.0628027
DAV:  24    -0.187353819732E+03    0.83753E-05   -0.19323E-05  3656   0.938E-03
Total vdW correction in eV:     82.0624877
Total vdW correction in eV:     82.0628099
   1 F= -.18735382E+03 E0= -.18735266E+03  d E =-.187354E+03
 curvature:   0.00 expect dE= 0.000E+00 dE for cont linesearch  0.000E+00
 trial: gam= 0.00000 g(F)=  0.981E-03 g(S)=  0.342E+00 ort = 0.000E+00 (trialstep = 0.100E+01)
 search vector abs. value=  0.343E+00
 bond charge predicted
       N       E                     dE             d eps       ncg     rms          rms(c)
Total vdW correction in eV:     82.0620682
DAV:   1    -0.189048466571E+03   -0.16946E+01   -0.55394E+01  4496   0.241E+01    0.896E+00
Total vdW correction in eV:     82.5643995
DAV:   2    -0.187748694315E+03    0.12998E+01   -0.40699E+00  4776   0.823E+00    0.599E+00
Total vdW correction in eV:     82.7792542
DAV:   3    -0.187517405887E+03    0.23129E+00   -0.88207E-01  5032   0.331E+00    0.306E+00
Total vdW correction in eV:     82.9016426
DAV:   4    -0.187465109623E+03    0.52296E-01   -0.50029E-01  4400   0.281E+00    0.240E+00
Total vdW correction in eV:     82.9108326
DAV:   5    -0.187436508618E+03    0.28601E-01   -0.71247E-02  6056   0.156E+00    0.129E+00
Total vdW correction in eV:     82.9089539
DAV:   6    -0.187417919797E+03    0.18589E-01   -0.24631E-02  5136   0.757E-01    0.527E-01
Total vdW correction in eV:     82.9088467
DAV:   7    -0.187417463190E+03    0.45661E-03   -0.20923E-02  5264   0.381E-01    0.197E-01
Total vdW correction in eV:     82.9016453
DAV:   8    -0.187417672690E+03   -0.20950E-03   -0.37779E-03  5928   0.187E-01    0.102E-01
Total vdW correction in eV:     82.9006130
DAV:   9    -0.187417647895E+03    0.24796E-04   -0.39605E-04  5568   0.903E-02    0.393E-02
Total vdW correction in eV:     82.9011125
DAV:  10    -0.187417661640E+03   -0.13745E-04   -0.11140E-04  5128   0.338E-02    0.285E-02
Total vdW correction in eV:     82.9010343
DAV:  11    -0.187417685716E+03   -0.24075E-04   -0.36123E-05  3504   0.209E-02    0.124E-02
Total vdW correction in eV:     82.9006434
DAV:  12    -0.187417700770E+03   -0.15055E-04   -0.59431E-06  2392   0.125E-02    0.656E-03
Total vdW correction in eV:     82.9004861
DAV:  13    -0.187417705516E+03   -0.47459E-05   -0.33325E-06  2344   0.940E-03
Total vdW correction in eV:     82.9001084
Total vdW correction in eV:     82.9003867
   2 F= -.18741771E+03 E0= -.18741659E+03  d E =-.638858E-01
 trial-energy change:   -0.063886  1 .order   -0.067140   -0.343137    0.208857
 step:   0.6132(harm=  0.6216)  dis= 0.00091  next Energy=  -187.458282 (dE=-0.104E+00)
 bond charge predicted
       N       E                     dE             d eps       ncg     rms          rms(c)
Total vdW correction in eV:     82.9023586
DAV:   1    -0.187696021505E+03   -0.27832E+00   -0.82071E+00  4520   0.932E+00    0.353E+00
Total vdW correction in eV:     82.7089202
DAV:   2    -0.187503323069E+03    0.19270E+00   -0.55854E-01  4856   0.291E+00    0.204E+00
Total vdW correction in eV:     82.6014453
DAV:   3    -0.187469293016E+03    0.34030E-01   -0.15970E-01  4768   0.122E+00    0.939E-01
Total vdW correction in eV:     82.5700365
DAV:   4    -0.187460838802E+03    0.84542E-02   -0.68362E-02  4320   0.109E+00    0.742E-01
Total vdW correction in eV:     82.5785642
DAV:   5    -0.187458777936E+03    0.20609E-02   -0.90450E-03  5168   0.412E-01    0.258E-01
Total vdW correction in eV:     82.5769450
DAV:   6    -0.187458472097E+03    0.30584E-03   -0.18872E-03  5688   0.226E-01    0.214E-01
Total vdW correction in eV:     82.5756202
DAV:   7    -0.187457866812E+03    0.60529E-03   -0.65533E-04  5256   0.117E-01    0.860E-02
Total vdW correction in eV:     82.5773865
DAV:   8    -0.187457935613E+03   -0.68801E-04   -0.93133E-04  5064   0.686E-02    0.432E-02
Total vdW correction in eV:     82.5780062
DAV:   9    -0.187457901118E+03    0.34495E-04   -0.83707E-05  4888   0.351E-02    0.253E-02
Total vdW correction in eV:     82.5783119
DAV:  10    -0.187457892292E+03    0.88260E-05   -0.26187E-05  2816   0.167E-02
Total vdW correction in eV:     82.5784615
Total vdW correction in eV:     82.5783436
   3 F= -.18745789E+03 E0= -.18745676E+03  d E =-.104073E+00
 curvature:  -0.31 expect dE=-0.108E-01 dE for cont linesearch -0.112E-05
 trial: gam= 0.10434 g(F)=  0.347E-01 g(S)=  0.893E-05 ort =-0.111E-02 (trialstep = 0.923E+00)
 search vector abs. value=  0.382E-01
 bond charge predicted
       N       E                     dE             d eps       ncg     rms          rms(c)
Total vdW correction in eV:     82.5204918
DAV:   1    -0.187486311168E+03   -0.28410E-01   -0.74316E+00  4360   0.673E+00    0.128E+00
Total vdW correction in eV:     82.5771792
DAV:   2    -0.187485917138E+03    0.39403E-03   -0.25073E-01  5224   0.136E+00    0.430E-01
Total vdW correction in eV:     82.6024613
DAV:   3    -0.187483580462E+03    0.23367E-02   -0.15802E-02  5776   0.418E-01    0.213E-01
Total vdW correction in eV:     82.6090868
DAV:   4    -0.187483492089E+03    0.88373E-04   -0.21389E-03  6032   0.174E-01    0.146E-01
Total vdW correction in eV:     82.6118924
DAV:   5    -0.187483388405E+03    0.10368E-03   -0.54730E-04  5864   0.115E-01    0.928E-02
Total vdW correction in eV:     82.6126122
DAV:   6    -0.187483398135E+03   -0.97294E-05   -0.24316E-04  4904   0.687E-02    0.511E-02
Total vdW correction in eV:     82.6125637
DAV:   7    -0.187483392427E+03    0.57075E-05   -0.12792E-04  4408   0.398E-02    0.183E-02
Total vdW correction in eV:     82.6123212
DAV:   8    -0.187483399550E+03   -0.71226E-05   -0.16952E-05  2536   0.158E-02
Total vdW correction in eV:     82.6125133
Total vdW correction in eV:     82.6122878
   4 F= -.18748340E+03 E0= -.18748246E+03  d E =-.255073E-01
 trial-energy change:   -0.025507  1 .order   -0.025424   -0.031902   -0.018946
 step:   2.1598(harm=  2.2718)  dis= 0.01920  next Energy=  -187.496303 (dE=-0.384E-01)
 bond charge predicted
       N       E                     dE             d eps       ncg     rms          rms(c)
Total vdW correction in eV:     82.5345407
DAV:   1    -0.187502588484E+03   -0.19196E-01   -0.13373E+01  4360   0.901E+00    0.171E+00
Total vdW correction in eV:     82.6097660
DAV:   2    -0.187501807877E+03    0.78061E-03   -0.44526E-01  5216   0.181E+00    0.579E-01
Total vdW correction in eV:     82.6443583
DAV:   3    -0.187497663059E+03    0.41448E-02   -0.28761E-02  5800   0.546E-01    0.274E-01
Total vdW correction in eV:     82.6528778
DAV:   4    -0.187497560486E+03    0.10257E-03   -0.34080E-03  5992   0.218E-01    0.188E-01
Total vdW correction in eV:     82.6563008
DAV:   5    -0.187497365545E+03    0.19494E-03   -0.90121E-04  5896   0.150E-01    0.122E-01
Total vdW correction in eV:     82.6574888
DAV:   6    -0.187497380365E+03   -0.14820E-04   -0.40623E-04  5264   0.871E-02    0.638E-02
Total vdW correction in eV:     82.6575498
DAV:   7    -0.187497386230E+03   -0.58653E-05   -0.21805E-04  4344   0.497E-02    0.240E-02
Total vdW correction in eV:     82.6572397
DAV:   8    -0.187497403990E+03   -0.17760E-04   -0.32193E-05  3312   0.196E-02    0.111E-02
Total vdW correction in eV:     82.6571592
DAV:   9    -0.187497411548E+03   -0.75586E-05   -0.62830E-06  2272   0.121E-02
Total vdW correction in eV:     82.6573822
Total vdW correction in eV:     82.6571402
   5 F= -.18749741E+03 E0= -.18749673E+03  d E =-.395193E-01
 curvature:  -1.25 expect dE=-0.240E-02 dE for cont linesearch -0.979E-04
 ZBRENT: extrapolating
 opt :   2.2738  next Energy=  -187.497510 (dE=-0.396E-01)
 bond charge predicted
       N       E                     dE             d eps       ncg     rms          rms(c)
Total vdW correction in eV:     82.6499896
DAV:   1    -0.187497584290E+03   -0.18030E-03   -0.11360E-01  4408   0.832E-01    0.158E-01
Total vdW correction in eV:     82.6570864
DAV:   2    -0.187497585113E+03   -0.82287E-06   -0.39874E-03  5696   0.176E-01    0.534E-02
Total vdW correction in eV:     82.6601598
DAV:   3    -0.187497548058E+03    0.37055E-04   -0.19750E-04  5456   0.501E-02    0.273E-02
Total vdW correction in eV:     82.6610115
DAV:   4    -0.187497545633E+03    0.24253E-05   -0.27059E-05  3128   0.222E-02    0.169E-02
Total vdW correction in eV:     82.6615780
DAV:   5    -0.187497549804E+03   -0.41714E-05   -0.10230E-05  2224   0.163E-02
Total vdW correction in eV:     82.6619411
Total vdW correction in eV:     82.6617155
   6 F= -.18749755E+03 E0= -.18749688E+03  d E =-.396575E-01
 curvature:  -1.26 expect dE=-0.265E-02 dE for cont linesearch -0.537E-05
 trial: gam= 0.04863 g(F)=  0.211E-02 g(S)=  0.267E-05 ort = 0.404E-03 (trialstep = 0.119E+01)
 search vector abs. value=  0.224E-02
 bond charge predicted
       N       E                     dE             d eps       ncg     rms          rms(c)
Total vdW correction in eV:     82.6556555
DAV:   1    -0.187497501468E+03    0.44164E-04   -0.31506E-01  4168   0.174E+00    0.253E-01
Total vdW correction in eV:     82.6558709
DAV:   2    -0.187499542447E+03   -0.20410E-02   -0.22502E-02  5480   0.426E-01    0.107E-01
Total vdW correction in eV:     82.6558994
DAV:   3    -0.187499502697E+03    0.39750E-04   -0.60447E-04  5840   0.109E-01    0.793E-02
Total vdW correction in eV:     82.6560458
DAV:   4    -0.187499489976E+03    0.12721E-04   -0.60423E-05  4552   0.386E-02    0.594E-02
Total vdW correction in eV:     82.6567718
DAV:   5    -0.187499497333E+03   -0.73568E-05   -0.99228E-05  4336   0.315E-02
Total vdW correction in eV:     82.6573819
Total vdW correction in eV:     82.6570522
   7 F= -.18749950E+03 E0= -.18749887E+03  d E =-.194753E-02
 trial-energy change:   -0.001948  1 .order   -0.001959   -0.002542   -0.001376
 step:   2.6005(harm=  2.6005)  dis= 0.00801  next Energy=  -187.500321 (dE=-0.277E-02)
 bond charge predicted
       N       E                     dE             d eps       ncg     rms          rms(c)
Total vdW correction in eV:     82.6498636
DAV:   1    -0.187497590126E+03    0.18998E-02   -0.43874E-01  4168   0.205E+00    0.299E-01
Total vdW correction in eV:     82.6501950
DAV:   2    -0.187500357005E+03   -0.27669E-02   -0.30792E-02  5400   0.493E-01    0.126E-01
Total vdW correction in eV:     82.6503097
DAV:   3    -0.187500313066E+03    0.43940E-04   -0.88208E-04  5816   0.133E-01    0.929E-02
Total vdW correction in eV:     82.6504962
DAV:   4    -0.187500291865E+03    0.21201E-04   -0.81808E-05  4856   0.473E-02    0.692E-02
Total vdW correction in eV:     82.6514344
DAV:   5    -0.187500295524E+03   -0.36592E-05   -0.12572E-04  4528   0.363E-02    0.306E-02
Total vdW correction in eV:     82.6518117
DAV:   6    -0.187500311076E+03   -0.15552E-04   -0.53423E-05  3792   0.236E-02    0.120E-02
Total vdW correction in eV:     82.6518386
DAV:   7    -0.187500312123E+03   -0.10469E-05   -0.64052E-06  2296   0.118E-02
Total vdW correction in eV:     82.6518263
Total vdW correction in eV:     82.6518161
   8 F= -.18750031E+03 E0= -.18749973E+03  d E =-.276232E-02
 curvature:  -1.37 expect dE=-0.479E-02 dE for cont linesearch -0.108E-05
 trial: gam= 1.68123 g(F)=  0.350E-02 g(S)=  0.460E-05 ort =-0.420E-04 (trialstep = 0.341E+00)
 search vector abs. value=  0.970E-02
 bond charge predicted
       N       E                     dE             d eps       ncg     rms          rms(c)
Total vdW correction in eV:     82.6485660
DAV:   1    -0.187500436630E+03   -0.12555E-03   -0.14403E-01  4208   0.113E+00    0.160E-01
Total vdW correction in eV:     82.6491991
DAV:   2    -0.187501193137E+03   -0.75651E-03   -0.86651E-03  5552   0.269E-01    0.793E-02
Total vdW correction in eV:     82.6494043
DAV:   3    -0.187501171758E+03    0.21380E-04   -0.25335E-04  5856   0.764E-02    0.514E-02
Total vdW correction in eV:     82.6496149
DAV:   4    -0.187501164145E+03    0.76123E-05   -0.34503E-05  3888   0.314E-02    0.422E-02
Total vdW correction in eV:     82.6502964
DAV:   5    -0.187501178676E+03   -0.14531E-04   -0.71252E-05  4096   0.249E-02    0.169E-02
Total vdW correction in eV:     82.6504852
DAV:   6    -0.187501187561E+03   -0.88854E-05   -0.19033E-05  2456   0.163E-02
Total vdW correction in eV:     82.6505106
Total vdW correction in eV:     82.6504982
   9 F= -.18750119E+03 E0= -.18750063E+03  d E =-.875439E-03
 trial-energy change:   -0.000875  1 .order   -0.000880   -0.001170   -0.000590
 step:   0.6882(harm=  0.6882)  dis= 0.00441  next Energy=  -187.501493 (dE=-0.118E-02)
 bond charge predicted
       N       E                     dE             d eps       ncg     rms          rms(c)
Total vdW correction in eV:     82.6471735
DAV:   1    -0.187500664589E+03    0.51409E-03   -0.14882E-01  4176   0.115E+00    0.160E-01
Total vdW correction in eV:     82.6478334
DAV:   2    -0.187501466701E+03   -0.80211E-03   -0.91310E-03  5512   0.290E-01    0.814E-02
Total vdW correction in eV:     82.6480167
DAV:   3    -0.187501446333E+03    0.20368E-04   -0.28822E-04  5976   0.837E-02    0.532E-02
Total vdW correction in eV:     82.6481988
DAV:   4    -0.187501435331E+03    0.11002E-04   -0.34157E-05  3744   0.324E-02    0.425E-02
Total vdW correction in eV:     82.6488435
DAV:   5    -0.187501451221E+03   -0.15890E-04   -0.68640E-05  4032   0.247E-02    0.183E-02
Total vdW correction in eV:     82.6490616
DAV:   6    -0.187501461183E+03   -0.99628E-05   -0.20441E-05  2512   0.165E-02
Total vdW correction in eV:     82.6490605
Total vdW correction in eV:     82.6490763
  10 F= -.18750146E+03 E0= -.18750092E+03  d E =-.114906E-02
 curvature:  -0.97 expect dE=-0.732E-03 dE for cont linesearch -0.502E-06
 trial: gam= 0.22746 g(F)=  0.749E-03 g(S)=  0.400E-05 ort =-0.707E-04 (trialstep = 0.410E+00)
 search vector abs. value=  0.122E-02
 bond charge predicted
       N       E                     dE             d eps       ncg     rms          rms(c)
Total vdW correction in eV:     82.6476484
DAV:   1    -0.187501537680E+03   -0.86459E-04   -0.35285E-02  4232   0.619E-01    0.606E-02
Total vdW correction in eV:     82.6485406
DAV:   2    -0.187501698715E+03   -0.16103E-03   -0.22235E-03  5448   0.144E-01    0.353E-02
Total vdW correction in eV:     82.6488337
DAV:   3    -0.187501698553E+03    0.16217E-06   -0.76046E-05  4880   0.409E-02    0.230E-02
Total vdW correction in eV:     82.6489820
DAV:   4    -0.187501702416E+03   -0.38631E-05   -0.55798E-06  2296   0.166E-02    0.173E-02
Total vdW correction in eV:     82.6493852
DAV:   5    -0.187501716587E+03   -0.14172E-04   -0.10647E-05  2216   0.120E-02    0.675E-03
Total vdW correction in eV:     82.6494801
DAV:   6    -0.187501727580E+03   -0.10993E-04   -0.63108E-06  2176   0.111E-02    0.405E-03
Total vdW correction in eV:     82.6494967
DAV:   7    -0.187501728935E+03   -0.13551E-05   -0.30938E-06  2152   0.823E-03
Total vdW correction in eV:     82.6493791
Total vdW correction in eV:     82.6494568
  11 F= -.18750173E+03 E0= -.18750119E+03  d E =-.267752E-03
 ZBRENT: can't locate minimum, use default step
 trial-energy change:   -0.000268  1 .order   -0.000270   -0.000302   -0.000238
 step:   1.6410(harm=  1.9338)  dis= 0.00322  next Energy=  -187.502174 (dE=-0.713E-03)
 bond charge predicted
       N       E                     dE             d eps       ncg     rms          rms(c)
Total vdW correction in eV:     82.6451731
DAV:   1    -0.187500496173E+03    0.12314E-02   -0.31873E-01  4184   0.186E+00    0.179E-01
Total vdW correction in eV:     82.6478176
DAV:   2    -0.187502108840E+03   -0.16127E-02   -0.18715E-02  5120   0.367E-01    0.104E-01
Total vdW correction in eV:     82.6487448
DAV:   3    -0.187502099888E+03    0.89525E-05   -0.69582E-04  6032   0.114E-01    0.700E-02
Total vdW correction in eV:     82.6491962
DAV:   4    -0.187502079155E+03    0.20733E-04   -0.70684E-05  4592   0.468E-02    0.534E-02
Total vdW correction in eV:     82.6504883
DAV:   5    -0.187502089752E+03   -0.10597E-04   -0.12350E-04  4744   0.331E-02    0.200E-02
Total vdW correction in eV:     82.6506260
DAV:   6    -0.187502111345E+03   -0.21593E-04   -0.34276E-05  3072   0.198E-02    0.112E-02
Total vdW correction in eV:     82.6505824
DAV:   7    -0.187502118414E+03   -0.70688E-05   -0.45795E-06  2248   0.113E-02
Total vdW correction in eV:     82.6502163
Total vdW correction in eV:     82.6504706
  12 F= -.18750212E+03 E0= -.18750157E+03  d E =-.657231E-03
 curvature:  -1.54 expect dE=-0.218E-02 dE for cont linesearch -0.286E-05
 trial: gam= 1.74796 g(F)=  0.139E-02 g(S)=  0.229E-04 ort = 0.475E-04 (trialstep = 0.151E+00)
 search vector abs. value=  0.531E-02
 bond charge predicted
       N       E                     dE             d eps       ncg     rms          rms(c)
Total vdW correction in eV:     82.6492830
DAV:   1    -0.187502239493E+03   -0.12815E-03   -0.19108E-02  4192   0.475E-01    0.402E-02
Total vdW correction in eV:     82.6492373
DAV:   2    -0.187502311607E+03   -0.72114E-04   -0.11837E-03  5520   0.101E-01    0.218E-02
Total vdW correction in eV:     82.6492768
DAV:   3    -0.187502317202E+03   -0.55948E-05   -0.32181E-05  3272   0.287E-02    0.157E-02
Total vdW correction in eV:     82.6492664
DAV:   4    -0.187502325189E+03   -0.79872E-05   -0.45842E-06  2320   0.128E-02    0.102E-02
Total vdW correction in eV:     82.6492869
DAV:   5    -0.187502341382E+03   -0.16193E-04   -0.61777E-06  2176   0.903E-03    0.509E-03
Total vdW correction in eV:     82.6492800
DAV:   6    -0.187502346986E+03   -0.56039E-05   -0.36064E-06  2176   0.861E-03
Total vdW correction in eV:     82.6493081
Total vdW correction in eV:     82.6492803
  13 F= -.18750235E+03 E0= -.18750180E+03  d E =-.228572E-03
 ZBRENT: can't locate minimum, use default step
 trial-energy change:   -0.000229  1 .order   -0.000231   -0.000225   -0.000236
 step:   0.6046(harm=  0.6046)  dis= 0.00227  next Energy=  -187.503105 (dE=-0.986E-03)
 bond charge predicted
       N       E                     dE             d eps       ncg     rms          rms(c)
Total vdW correction in eV:     82.6457171
DAV:   1    -0.187502080914E+03    0.26047E-03   -0.17132E-01  4160   0.142E+00    0.115E-01
Total vdW correction in eV:     82.6458013
DAV:   2    -0.187502940056E+03   -0.85914E-03   -0.98919E-03  5032   0.262E-01    0.643E-02
Total vdW correction in eV:     82.6459683
DAV:   3    -0.187502942661E+03   -0.26046E-05   -0.38031E-04  5984   0.841E-02    0.484E-02
Total vdW correction in eV:     82.6459694
DAV:   4    -0.187502927263E+03    0.15398E-04   -0.32321E-05  3736   0.294E-02    0.308E-02
Total vdW correction in eV:     82.6460655
DAV:   5    -0.187502947238E+03   -0.19975E-04   -0.46515E-05  3672   0.204E-02    0.154E-02
Total vdW correction in eV:     82.6460671
DAV:   6    -0.187502969711E+03   -0.22474E-04   -0.14888E-05  2568   0.151E-02    0.678E-03
Total vdW correction in eV:     82.6460631
DAV:   7    -0.187502973006E+03   -0.32951E-05   -0.43137E-06  2176   0.107E-02
Total vdW correction in eV:     82.6460498
Total vdW correction in eV:     82.6460552
  14 F= -.18750297E+03 E0= -.18750242E+03  d E =-.854592E-03
 curvature:  -1.65 expect dE=-0.154E-02 dE for cont linesearch -0.508E-03
 ZBRENT: increasing intervall
 opt :   1.5114  next Energy=  -187.503880 (dE=-0.176E-02)
 bond charge predicted
       N       E                     dE             d eps       ncg     rms          rms(c)
Total vdW correction in eV:     82.6389264
DAV:   1    -0.187500388741E+03    0.25810E-02   -0.68703E-01  4160   0.285E+00    0.232E-01
Total vdW correction in eV:     82.6389515
DAV:   2    -0.187503957257E+03   -0.35685E-02   -0.39747E-02  5088   0.526E-01    0.130E-01
Total vdW correction in eV:     82.6393112
DAV:   3    -0.187503959009E+03   -0.17525E-05   -0.14360E-03  5952   0.165E-01    0.967E-02
Total vdW correction in eV:     82.6393318
DAV:   4    -0.187503913672E+03    0.45337E-04   -0.13299E-04  5280   0.590E-02    0.613E-02
Total vdW correction in eV:     82.6395790
DAV:   5    -0.187503940637E+03   -0.26965E-04   -0.18492E-04  4744   0.401E-02    0.302E-02
Total vdW correction in eV:     82.6395984
DAV:   6    -0.187503966699E+03   -0.26063E-04   -0.65167E-05  3976   0.238E-02    0.152E-02
Total vdW correction in eV:     82.6395801
DAV:   7    -0.187503973207E+03   -0.65073E-05   -0.63869E-06  2296   0.111E-02
Total vdW correction in eV:     82.6395439
Total vdW correction in eV:     82.6395548
  15 F= -.18750397E+03 E0= -.18750341E+03  d E =-.185479E-02
 curvature:  -2.94 expect dE=-0.306E-02 dE for cont linesearch -0.451E-03
 ZBRENT: increasing intervall
 opt :   3.3251  next Energy=  -187.504927 (dE=-0.281E-02)
 bond charge predicted
       N       E                     dE             d eps       ncg     rms          rms(c)
Total vdW correction in eV:     82.6252894
DAV:   1    -0.187490809807E+03    0.13157E-01   -0.27504E+00  4200   0.570E+00    0.467E-01
Total vdW correction in eV:     82.6251728
DAV:   2    -0.187505116574E+03   -0.14307E-01   -0.15664E-01  5000   0.104E+00    0.260E-01
Total vdW correction in eV:     82.6259832
DAV:   3    -0.187505113766E+03    0.28074E-05   -0.60970E-03  6024   0.340E-01    0.193E-01
Total vdW correction in eV:     82.6260463
DAV:   4    -0.187504894828E+03    0.21894E-03   -0.57457E-04  5632   0.118E-01    0.124E-01
Total vdW correction in eV:     82.6265997
DAV:   5    -0.187504956288E+03   -0.61459E-04   -0.74817E-04  5136   0.800E-02    0.609E-02
Total vdW correction in eV:     82.6266493
DAV:   6    -0.187504991918E+03   -0.35630E-04   -0.25370E-04  5064   0.467E-02    0.310E-02
Total vdW correction in eV:     82.6266157
DAV:   7    -0.187504992040E+03   -0.12240E-06   -0.24283E-05  2752   0.196E-02
Total vdW correction in eV:     82.6265616
Total vdW correction in eV:     82.6265826
  16 F= -.18750499E+03 E0= -.18750440E+03  d E =-.287363E-02
 curvature:  -6.21 expect dE=-0.258E-01 dE for cont linesearch -0.233E-04
 trial: gam= 3.29955 g(F)=  0.413E-02 g(S)=  0.184E-04 ort = 0.141E-03 (trialstep = 0.664E-01)
 search vector abs. value=  0.629E-01
 bond charge predicted
       N       E                     dE             d eps       ncg     rms          rms(c)
Total vdW correction in eV:     82.6248946
DAV:   1    -0.187505067943E+03   -0.76026E-04   -0.43469E-02  4192   0.703E-01    0.628E-02
Total vdW correction in eV:     82.6251121
DAV:   2    -0.187505287558E+03   -0.21961E-03   -0.27182E-03  5544   0.153E-01    0.341E-02
Total vdW correction in eV:     82.6252909
DAV:   3    -0.187505290858E+03   -0.32998E-05   -0.81469E-05  4648   0.427E-02    0.238E-02
Total vdW correction in eV:     82.6253325
DAV:   4    -0.187505295920E+03   -0.50624E-05   -0.66215E-06  2312   0.159E-02    0.177E-02
Total vdW correction in eV:     82.6255378
DAV:   5    -0.187505312270E+03   -0.16350E-04   -0.18847E-05  2776   0.128E-02    0.637E-03
Total vdW correction in eV:     82.6255422
DAV:   6    -0.187505315245E+03   -0.29750E-05   -0.62911E-06  2264   0.113E-02
Total vdW correction in eV:     82.6255085
Total vdW correction in eV:     82.6255348
  17 F= -.18750532E+03 E0= -.18750473E+03  d E =-.323205E-03
 ZBRENT: can't locate minimum, use default step
 trial-energy change:   -0.000323  1 .order   -0.000309   -0.000306   -0.000311
 step:   0.2654(harm=  0.2654)  dis= 0.00350  next Energy=  -187.506257 (dE=-0.126E-02)
 bond charge predicted
       N       E                     dE             d eps       ncg     rms          rms(c)
Total vdW correction in eV:     82.6204705
DAV:   1    -0.187504145318E+03    0.11670E-02   -0.38971E-01  4168   0.211E+00    0.179E-01
Total vdW correction in eV:     82.6210906
DAV:   2    -0.187506154295E+03   -0.20090E-02   -0.22426E-02  5104   0.406E-01    0.106E-01
Total vdW correction in eV:     82.6216175
DAV:   3    -0.187506141591E+03    0.12704E-04   -0.86036E-04  6144   0.129E-01    0.736E-02
Total vdW correction in eV:     82.6217456
DAV:   4    -0.187506123422E+03    0.18169E-04   -0.83325E-05  4720   0.461E-02    0.502E-02
Total vdW correction in eV:     82.6222447
DAV:   5    -0.187506151190E+03   -0.27768E-04   -0.12328E-04  4544   0.324E-02    0.223E-02
Total vdW correction in eV:     82.6222753
DAV:   6    -0.187506167720E+03   -0.16530E-04   -0.38651E-05  3400   0.198E-02    0.117E-02
Total vdW correction in eV:     82.6222535
DAV:   7    -0.187506171786E+03   -0.40664E-05   -0.43623E-06  2224   0.965E-03
Total vdW correction in eV:     82.6221005
Total vdW correction in eV:     82.6222040
  18 F= -.18750617E+03 E0= -.18750560E+03  d E =-.117975E-02
 curvature:  -2.73 expect dE=-0.713E-02 dE for cont linesearch -0.648E-03
 ZBRENT: increasing intervall
 opt :   0.6636  next Energy=  -187.507378 (dE=-0.239E-02)
 bond charge predicted
       N       E                     dE             d eps       ncg     rms          rms(c)
Total vdW correction in eV:     82.6120720
DAV:   1    -0.187499513020E+03    0.66547E-02   -0.15613E+00  4168   0.421E+00    0.364E-01
Total vdW correction in eV:     82.6131782
DAV:   2    -0.187507564424E+03   -0.80514E-02   -0.88181E-02  5008   0.796E-01    0.215E-01
Total vdW correction in eV:     82.6142803
DAV:   3    -0.187507524264E+03    0.40160E-04   -0.34447E-03  6016   0.259E-01    0.148E-01
Total vdW correction in eV:     82.6145537
DAV:   4    -0.187507408629E+03    0.11564E-03   -0.34116E-04  5504   0.925E-02    0.103E-01
Total vdW correction in eV:     82.6156776
DAV:   5    -0.187507469602E+03   -0.60973E-04   -0.52274E-04  4952   0.651E-02    0.440E-02
Total vdW correction in eV:     82.6157336
DAV:   6    -0.187507494760E+03   -0.25158E-04   -0.16311E-04  4720   0.371E-02    0.244E-02
Total vdW correction in eV:     82.6156753
DAV:   7    -0.187507499830E+03   -0.50699E-05   -0.13024E-05  2328   0.156E-02
Total vdW correction in eV:     82.6153455
Total vdW correction in eV:     82.6155710
  19 F= -.18750750E+03 E0= -.18750695E+03  d E =-.250779E-02
 curvature:  -5.09 expect dE=-0.766E-02 dE for cont linesearch -0.510E-03
 ZBRENT: increasing intervall
 opt :   1.4599  next Energy=  -187.508421 (dE=-0.343E-02)
 bond charge predicted
       N       E                     dE             d eps       ncg     rms          rms(c)
Total vdW correction in eV:     82.5952947
DAV:   1    -0.187476169873E+03    0.31325E-01   -0.62398E+00  4160   0.844E+00    0.740E-01
Total vdW correction in eV:     82.5972433
DAV:   2    -0.187509211196E+03   -0.33041E-01   -0.35882E-01  5040   0.162E+00    0.435E-01
Total vdW correction in eV:     82.5995354
DAV:   3    -0.187508992429E+03    0.21877E-03   -0.13713E-02  6040   0.525E-01    0.299E-01
Total vdW correction in eV:     82.6001144
DAV:   4    -0.187508487405E+03    0.50502E-03   -0.12940E-03  5528   0.185E-01    0.210E-01
Total vdW correction in eV:     82.6025383
DAV:   5    -0.187508555179E+03   -0.67774E-04   -0.21332E-03  5184   0.130E-01    0.885E-02
Total vdW correction in eV:     82.6026534
DAV:   6    -0.187508629712E+03   -0.74534E-04   -0.65986E-04  5216   0.727E-02    0.489E-02
Total vdW correction in eV:     82.6025173
DAV:   7    -0.187508620297E+03    0.94157E-05   -0.66995E-05  4344   0.285E-02
Total vdW correction in eV:     82.6018448
Total vdW correction in eV:     82.6023746
  20 F= -.18750862E+03 E0= -.18750812E+03  d E =-.362826E-02
 curvature:  -9.21 expect dE=-0.346E-01 dE for cont linesearch -0.313E-05
 trial: gam= 1.15390 g(F)=  0.375E-02 g(S)=  0.104E-06 ort =-0.146E-03 (trialstep = 0.249E+00)
 search vector abs. value=  0.871E-01
 bond charge predicted
       N       E                     dE             d eps       ncg     rms          rms(c)
Total vdW correction in eV:     82.5954968
DAV:   1    -0.187505188809E+03    0.34409E-02   -0.85649E-01  4192   0.312E+00    0.267E-01
Total vdW correction in eV:     82.5960715
DAV:   2    -0.187509471077E+03   -0.42823E-02   -0.47558E-02  4984   0.582E-01    0.152E-01
Total vdW correction in eV:     82.5968535
DAV:   3    -0.187509463534E+03    0.75432E-05   -0.18021E-03  6144   0.188E-01    0.108E-01
Total vdW correction in eV:     82.5970240
DAV:   4    -0.187509415408E+03    0.48126E-04   -0.18199E-04  5352   0.674E-02    0.739E-02
Total vdW correction in eV:     82.5977464
DAV:   5    -0.187509469037E+03   -0.53629E-04   -0.26483E-04  4880   0.469E-02    0.305E-02
Total vdW correction in eV:     82.5977679
DAV:   6    -0.187509487895E+03   -0.18858E-04   -0.85287E-05  4144   0.268E-02    0.178E-02
Total vdW correction in eV:     82.5977278
DAV:   7    -0.187509493113E+03   -0.52177E-05   -0.66198E-06  2320   0.122E-02
Total vdW correction in eV:     82.5974820
Total vdW correction in eV:     82.5976403
  21 F= -.18750949E+03 E0= -.18750903E+03  d E =-.872816E-03
 ZBRENT: can't locate minimum, use default step
 trial-energy change:   -0.000873  1 .order   -0.000814   -0.000893   -0.000735
 step:   0.9960(harm=  1.4084)  dis= 0.01548  next Energy=  -187.511146 (dE=-0.253E-02)
 bond charge predicted
       N       E                     dE             d eps       ncg     rms          rms(c)
Total vdW correction in eV:     82.5769866
DAV:   1    -0.187472198181E+03    0.37290E-01   -0.76981E+00  4184   0.936E+00    0.814E-01
Total vdW correction in eV:     82.5786829
DAV:   2    -0.187512017883E+03   -0.39820E-01   -0.43078E-01  5024   0.178E+00    0.483E-01
Total vdW correction in eV:     82.5812284
DAV:   3    -0.187511523248E+03    0.49463E-03   -0.16254E-02  6008   0.585E-01    0.332E-01
Total vdW correction in eV:     82.5818538
DAV:   4    -0.187510903423E+03    0.61982E-03   -0.15641E-03  5568   0.201E-01    0.229E-01
Total vdW correction in eV:     82.5845028
DAV:   5    -0.187510971464E+03   -0.68041E-04   -0.25275E-03  5112   0.144E-01    0.969E-02
Total vdW correction in eV:     82.5845861
DAV:   6    -0.187511062215E+03   -0.90751E-04   -0.84877E-04  5400   0.812E-02    0.527E-02
Total vdW correction in eV:     82.5844097
DAV:   7    -0.187511046220E+03    0.15995E-04   -0.81699E-05  4568   0.307E-02    0.391E-02
Total vdW correction in eV:     82.5841933
DAV:   8    -0.187511049985E+03   -0.37647E-05   -0.10202E-04  4120   0.204E-02    0.180E-02
Total vdW correction in eV:     82.5840365
DAV:   9    -0.187511050076E+03   -0.91102E-07   -0.19283E-05  2800   0.161E-02
Total vdW correction in eV:     82.5837418
Total vdW correction in eV:     82.5839166
  22 F= -.18751105E+03 E0= -.18751070E+03  d E =-.242978E-02
 curvature: -14.95 expect dE=-0.293E-01 dE for cont linesearch -0.105E-03
 ZBRENT: extrapolating
 opt :   1.2657  next Energy=  -187.511156 (dE=-0.254E-02)
 bond charge predicted
       N       E                     dE             d eps       ncg     rms          rms(c)
Total vdW correction in eV:     82.5764275
DAV:   1    -0.187506231747E+03    0.48182E-02   -0.10055E+00  4192   0.337E+00    0.286E-01
Total vdW correction in eV:     82.5772140
DAV:   2    -0.187511258361E+03   -0.50266E-02   -0.55155E-02  5120   0.632E-01    0.173E-01
Total vdW correction in eV:     82.5780676
DAV:   3    -0.187511191391E+03    0.66970E-04   -0.21006E-03  6016   0.203E-01    0.119E-01
Total vdW correction in eV:     82.5782734
DAV:   4    -0.187511121968E+03    0.69423E-04   -0.21743E-04  5352   0.723E-02    0.822E-02
Total vdW correction in eV:     82.5791595
DAV:   5    -0.187511190645E+03   -0.68677E-04   -0.34902E-04  4864   0.538E-02    0.346E-02
Total vdW correction in eV:     82.5791652
DAV:   6    -0.187511206667E+03   -0.16022E-04   -0.10940E-04  4264   0.303E-02    0.190E-02
Total vdW correction in eV:     82.5790974
DAV:   7    -0.187511207347E+03   -0.68002E-06   -0.86280E-06  2344   0.125E-02
Total vdW correction in eV:     82.5788227
Total vdW correction in eV:     82.5789808
  23 F= -.18751121E+03 E0= -.18751089E+03  d E =-.258705E-02
 curvature: -15.01 expect dE=-0.364E-01 dE for cont linesearch -0.189E-08
 trial: gam= 0.42603 g(F)=  0.235E-02 g(S)=  0.703E-04 ort = 0.331E-05 (trialstep = 0.452E+00)
 search vector abs. value=  0.182E-01
 bond charge predicted
       N       E                     dE             d eps       ncg     rms          rms(c)
Total vdW correction in eV:     82.5740362
DAV:   1    -0.187509163013E+03    0.20437E-02   -0.64963E-01  4184   0.259E+00    0.232E-01
Total vdW correction in eV:     82.5719669
DAV:   2    -0.187512111964E+03   -0.29490E-02   -0.32813E-02  5232   0.502E-01    0.143E-01
Total vdW correction in eV:     82.5715344
DAV:   3    -0.187512033058E+03    0.78906E-04   -0.12428E-03  5952   0.160E-01    0.979E-02
Total vdW correction in eV:     82.5711567
DAV:   4    -0.187511994247E+03    0.38811E-04   -0.14083E-04  5048   0.562E-02    0.649E-02
Total vdW correction in eV:     82.5702296
DAV:   5    -0.187512036306E+03   -0.42059E-04   -0.20152E-04  4728   0.415E-02    0.301E-02
Total vdW correction in eV:     82.5700663
DAV:   6    -0.187512050405E+03   -0.14099E-04   -0.75176E-05  4088   0.262E-02    0.158E-02
Total vdW correction in eV:     82.5700989
DAV:   7    -0.187512053092E+03   -0.26867E-05   -0.68879E-06  2320   0.121E-02
Total vdW correction in eV:     82.5704305
Total vdW correction in eV:     82.5701752
  24 F= -.18751205E+03 E0= -.18751177E+03  d E =-.845745E-03
 trial-energy change:   -0.000846  1 .order   -0.000813   -0.001097   -0.000528
 step:   0.8724(harm=  0.8724)  dis= 0.00497  next Energy=  -187.512265 (dE=-0.106E-02)
 bond charge predicted
       N       E                     dE             d eps       ncg     rms          rms(c)
Total vdW correction in eV:     82.5655753
DAV:   1    -0.187509820957E+03    0.22294E-02   -0.55987E-01  4192   0.240E+00    0.215E-01
Total vdW correction in eV:     82.5637478
DAV:   2    -0.187512364651E+03   -0.25437E-02   -0.28302E-02  5200   0.466E-01    0.134E-01
Total vdW correction in eV:     82.5633524
DAV:   3    -0.187512298483E+03    0.66168E-04   -0.10687E-03  5904   0.148E-01    0.908E-02
Total vdW correction in eV:     82.5630071
DAV:   4    -0.187512270022E+03    0.28461E-04   -0.11843E-04  4936   0.520E-02    0.608E-02
Total vdW correction in eV:     82.5621752
DAV:   5    -0.187512305670E+03   -0.35648E-04   -0.17453E-04  4712   0.387E-02    0.281E-02
Total vdW correction in eV:     82.5620251
DAV:   6    -0.187512318661E+03   -0.12991E-04   -0.65187E-05  3912   0.245E-02    0.148E-02
Total vdW correction in eV:     82.5620514
DAV:   7    -0.187512321772E+03   -0.31112E-05   -0.61146E-06  2256   0.115E-02
Total vdW correction in eV:     82.5623725
Total vdW correction in eV:     82.5621217
  25 F= -.18751232E+03 E0= -.18751207E+03  d E =-.111442E-02
 curvature:  -3.28 expect dE=-0.447E-02 dE for cont linesearch -0.486E-07
 trial: gam= 0.59009 g(F)=  0.136E-02 g(S)=  0.262E-07 ort =-0.164E-04 (trialstep = 0.536E+00)
 search vector abs. value=  0.769E-02
 bond charge predicted
       N       E                     dE             d eps       ncg     rms          rms(c)
Total vdW correction in eV:     82.5590634
DAV:   1    -0.187511308256E+03    0.10104E-02   -0.38209E-01  4184   0.196E+00    0.178E-01
Total vdW correction in eV:     82.5576312
DAV:   2    -0.187513032522E+03   -0.17243E-02   -0.19241E-02  5440   0.392E-01    0.115E-01
Total vdW correction in eV:     82.5573974
DAV:   3    -0.187512977541E+03    0.54981E-04   -0.66356E-04  5992   0.122E-01    0.764E-02
Total vdW correction in eV:     82.5571505
DAV:   4    -0.187512962789E+03    0.14752E-04   -0.76427E-05  4528   0.448E-02    0.533E-02
Total vdW correction in eV:     82.5566240
DAV:   5    -0.187512993175E+03   -0.30386E-04   -0.14715E-04  4496   0.344E-02    0.211E-02
Total vdW correction in eV:     82.5566215
DAV:   6    -0.187513008832E+03   -0.15657E-04   -0.52847E-05  3640   0.217E-02    0.130E-02
Total vdW correction in eV:     82.5566379
DAV:   7    -0.187513012679E+03   -0.38470E-05   -0.44682E-06  2200   0.102E-02
Total vdW correction in eV:     82.5569113
Total vdW correction in eV:     82.5566906
  26 F= -.18751301E+03 E0= -.18751278E+03  d E =-.690907E-03
 ZBRENT: can't locate minimum, use default step
 trial-energy change:   -0.000691  1 .order   -0.000672   -0.000725   -0.000619
 step:   2.1454(harm=  3.6489)  dis= 0.00819  next Energy=  -187.514789 (dE=-0.247E-02)
 bond charge predicted
       N       E                     dE             d eps       ncg     rms          rms(c)
Total vdW correction in eV:     82.5474842
DAV:   1    -0.187499300671E+03    0.13708E-01   -0.34376E+00  4152   0.587E+00    0.532E-01
Total vdW correction in eV:     82.5428183
DAV:   2    -0.187515010607E+03   -0.15710E-01   -0.16982E-01  4968   0.115E+00    0.346E-01
Total vdW correction in eV:     82.5421985
DAV:   3    -0.187514563750E+03    0.44686E-03   -0.69047E-03  6120   0.384E-01    0.229E-01
Total vdW correction in eV:     82.5414674
DAV:   4    -0.187514288504E+03    0.27525E-03   -0.80501E-04  5464   0.137E-01    0.158E-01
Total vdW correction in eV:     82.5400291
DAV:   5    -0.187514354016E+03   -0.65511E-04   -0.12160E-03  4992   0.101E-01    0.643E-02
Total vdW correction in eV:     82.5400099
DAV:   6    -0.187514417061E+03   -0.63046E-04   -0.45067E-04  5032   0.582E-02    0.390E-02
Total vdW correction in eV:     82.5400666
DAV:   7    -0.187514409567E+03    0.74943E-05   -0.34746E-05  3416   0.231E-02
Total vdW correction in eV:     82.5407449
Total vdW correction in eV:     82.5401989
  27 F= -.18751441E+03 E0= -.18751424E+03  d E =-.208780E-02
 curvature:  -7.96 expect dE=-0.167E-01 dE for cont linesearch -0.251E-03
 ZBRENT: increasing intervall
 opt :   5.3635  next Energy=  -187.513870 (dE=-0.155E-02)
 bond charge predicted
       N       E                     dE             d eps       ncg     rms          rms(c)
Total vdW correction in eV:     82.5216301
DAV:   1    -0.187455144803E+03    0.59272E-01   -0.13763E+01  4176   0.117E+01    0.105E+00
Total vdW correction in eV:     82.5117037
DAV:   2    -0.187517180593E+03   -0.62036E-01   -0.66552E-01  4960   0.225E+00    0.688E-01
Total vdW correction in eV:     82.5107328
DAV:   3    -0.187515206648E+03    0.19739E-02   -0.26288E-02  6032   0.768E-01    0.455E-01
Total vdW correction in eV:     82.5093607
DAV:   4    -0.187514014368E+03    0.11923E-02   -0.29651E-03  5552   0.272E-01    0.313E-01
Total vdW correction in eV:     82.5067541
DAV:   5    -0.187514052567E+03   -0.38199E-04   -0.49059E-03  5056   0.200E-01    0.126E-01
Total vdW correction in eV:     82.5067526
DAV:   6    -0.187514239418E+03   -0.18685E-03   -0.17586E-03  5320   0.113E-01    0.767E-02
Total vdW correction in eV:     82.5068830
DAV:   7    -0.187514210600E+03    0.28818E-04   -0.15229E-04  5128   0.426E-02    0.580E-02
Total vdW correction in eV:     82.5070881
DAV:   8    -0.187514182572E+03    0.28028E-04   -0.19046E-04  4656   0.278E-02    0.238E-02
Total vdW correction in eV:     82.5073039
DAV:   9    -0.187514184059E+03   -0.14870E-05   -0.62876E-05  3872   0.192E-02
Total vdW correction in eV:     82.5078090
Total vdW correction in eV:     82.5074702
  28 F= -.18751418E+03 E0= -.18751410E+03  d E =-.186229E-02
 curvature:  17.10 expect dE= 0.202E+00 dE for cont linesearch  0.134E-02
 ZBRENT: bracketing found
 ZBRENT: interpolating
 opt :   3.3944  next Energy=  -187.514717 (dE=-0.240E-02)
 bond charge predicted
       N       E                     dE             d eps       ncg     rms          rms(c)
Total vdW correction in eV:     82.5189005
DAV:   1    -0.187492400022E+03    0.21783E-01   -0.51459E+00  4176   0.717E+00    0.664E-01
Total vdW correction in eV:     82.5235927
DAV:   2    -0.187516053863E+03   -0.23654E-01   -0.25230E-01  5032   0.140E+00    0.430E-01
Total vdW correction in eV:     82.5247053
DAV:   3    -0.187515082277E+03    0.97159E-03   -0.10285E-02  5936   0.464E-01    0.285E-01
Total vdW correction in eV:     82.5258088
DAV:   4    -0.187514687311E+03    0.39497E-03   -0.12176E-03  5504   0.167E-01    0.197E-01
Total vdW correction in eV:     82.5282592
DAV:   5    -0.187514721829E+03   -0.34518E-04   -0.18827E-03  5168   0.125E-01    0.802E-02
Total vdW correction in eV:     82.5283725
DAV:   6    -0.187514814252E+03   -0.92423E-04   -0.70719E-04  5040   0.706E-02    0.488E-02
Total vdW correction in eV:     82.5283055
DAV:   7    -0.187514804419E+03    0.98323E-05   -0.57513E-05  4280   0.275E-02
Total vdW correction in eV:     82.5272951
Total vdW correction in eV:     82.5281263
  29 F= -.18751480E+03 E0= -.18751466E+03  d E =-.248265E-02
 curvature:  -3.92 expect dE=-0.174E-01 dE for cont linesearch -0.133E-04
 trial: gam= 3.14432 g(F)=  0.437E-02 g(S)=  0.651E-04 ort = 0.162E-03 (trialstep = 0.105E+00)
 search vector abs. value=  0.815E-01
 bond charge predicted
       N       E                     dE             d eps       ncg     rms          rms(c)
Total vdW correction in eV:     82.5260181
DAV:   1    -0.187514607039E+03    0.20721E-03   -0.15625E-01  4224   0.130E+00    0.104E-01
Total vdW correction in eV:     82.5254948
DAV:   2    -0.187515296347E+03   -0.68931E-03   -0.76376E-03  5280   0.249E-01    0.728E-02
Total vdW correction in eV:     82.5255258
DAV:   3    -0.187515258872E+03    0.37475E-04   -0.30932E-04  5760   0.814E-02    0.459E-02
Total vdW correction in eV:     82.5254631
DAV:   4    -0.187515254391E+03    0.44811E-05   -0.33107E-05  3504   0.280E-02    0.295E-02
Total vdW correction in eV:     82.5254293
DAV:   5    -0.187515271644E+03   -0.17253E-04   -0.56406E-05  3760   0.214E-02    0.132E-02
Total vdW correction in eV:     82.5254366
DAV:   6    -0.187515278811E+03   -0.71667E-05   -0.11236E-05  2152   0.135E-02
Total vdW correction in eV:     82.5254827
Total vdW correction in eV:     82.5254446
  30 F= -.18751528E+03 E0= -.18751515E+03  d E =-.474392E-03
 ZBRENT: can't locate minimum, use default step
 trial-energy change:   -0.000474  1 .order   -0.000491   -0.000517   -0.000466
 step:   0.4183(harm=  1.0586)  dis= 0.00509  next Energy=  -187.517421 (dE=-0.262E-02)
 bond charge predicted
       N       E                     dE             d eps       ncg     rms          rms(c)
Total vdW correction in eV:     82.5191062
DAV:   1    -0.187510164636E+03    0.51070E-02   -0.14068E+00  4176   0.391E+00    0.313E-01
Total vdW correction in eV:     82.5180526
DAV:   2    -0.187516631237E+03   -0.64666E-02   -0.70496E-02  5080   0.732E-01    0.199E-01
Total vdW correction in eV:     82.5183395
DAV:   3    -0.187516513035E+03    0.11820E-03   -0.28912E-03  6040   0.247E-01    0.138E-01
Total vdW correction in eV:     82.5182794
DAV:   4    -0.187516402369E+03    0.11067E-03   -0.31215E-04  5304   0.857E-02    0.874E-02
Total vdW correction in eV:     82.5184986
DAV:   5    -0.187516474792E+03   -0.72423E-04   -0.44156E-04  4816   0.609E-02    0.384E-02
Total vdW correction in eV:     82.5185688
DAV:   6    -0.187516500172E+03   -0.25380E-04   -0.15001E-04  4520   0.345E-02    0.239E-02
Total vdW correction in eV:     82.5185774
DAV:   7    -0.187516501064E+03   -0.89254E-06   -0.10713E-05  2216   0.149E-02
Total vdW correction in eV:     82.5186576
Total vdW correction in eV:     82.5185746
  31 F= -.18751650E+03 E0= -.18751638E+03  d E =-.169664E-02
 curvature:  -4.80 expect dE=-0.130E-01 dE for cont linesearch -0.620E-03
 ZBRENT: increasing intervall
 opt :   1.0457  next Energy=  -187.517778 (dE=-0.297E-02)
 bond charge predicted
       N       E                     dE             d eps       ncg     rms          rms(c)
Total vdW correction in eV:     82.5058305
DAV:   1    -0.187492640620E+03    0.23860E-01   -0.56291E+00  4168   0.782E+00    0.626E-01
Total vdW correction in eV:     82.5034197
DAV:   2    -0.187518885793E+03   -0.26245E-01   -0.28192E-01  5008   0.146E+00    0.395E-01
Total vdW correction in eV:     82.5041174
DAV:   3    -0.187518365047E+03    0.52075E-03   -0.11490E-02  6072   0.495E-01    0.275E-01
Total vdW correction in eV:     82.5040441
DAV:   4    -0.187517849514E+03    0.51553E-03   -0.12501E-03  5464   0.171E-01    0.175E-01
Total vdW correction in eV:     82.5046406
DAV:   5    -0.187517985141E+03   -0.13563E-03   -0.17981E-03  5080   0.121E-01    0.766E-02
Total vdW correction in eV:     82.5047954
DAV:   6    -0.187518050281E+03   -0.65140E-04   -0.59299E-04  5064   0.677E-02    0.472E-02
Total vdW correction in eV:     82.5048046
DAV:   7    -0.187518034478E+03    0.15803E-04   -0.52952E-05  4104   0.268E-02    0.347E-02
Total vdW correction in eV:     82.5047746
DAV:   8    -0.187518036407E+03   -0.19291E-05   -0.80449E-05  4040   0.184E-02
Total vdW correction in eV:     82.5048500
Total vdW correction in eV:     82.5047898
  32 F= -.18751804E+03 E0= -.18751793E+03  d E =-.323199E-02
 curvature:  -9.89 expect dE=-0.328E-01 dE for cont linesearch -0.236E-03
 ZBRENT: increasing intervall
 opt :   2.3006  next Energy=  -187.517468 (dE=-0.266E-02)
 bond charge predicted
       N       E                     dE             d eps       ncg     rms          rms(c)
Total vdW correction in eV:     82.4790291
DAV:   1    -0.187418076353E+03    0.99958E-01   -0.22533E+01  4184   0.156E+01    0.126E+00
Total vdW correction in eV:     82.4730588
DAV:   2    -0.187521828748E+03   -0.10375E+00   -0.11048E+00  4984   0.286E+00    0.801E-01
Total vdW correction in eV:     82.4749048
DAV:   3    -0.187519222230E+03    0.26065E-02   -0.45775E-02  6032   0.999E-01    0.551E-01
Total vdW correction in eV:     82.4749115
DAV:   4    -0.187517064626E+03    0.21576E-02   -0.49279E-03  5432   0.344E-01    0.351E-01
Total vdW correction in eV:     82.4767406
DAV:   5    -0.187517313125E+03   -0.24850E-03   -0.73779E-03  5232   0.244E-01    0.154E-01
Total vdW correction in eV:     82.4770476
DAV:   6    -0.187517489586E+03   -0.17646E-03   -0.22766E-03  5312   0.134E-01    0.924E-02
Total vdW correction in eV:     82.4770371
DAV:   7    -0.187517434310E+03    0.55276E-04   -0.22393E-04  5048   0.515E-02    0.672E-02
Total vdW correction in eV:     82.4769541
DAV:   8    -0.187517408312E+03    0.25998E-04   -0.27401E-04  4648   0.327E-02    0.300E-02
Total vdW correction in eV:     82.4769542
DAV:   9    -0.187517408738E+03   -0.42649E-06   -0.82138E-05  4256   0.229E-02
Total vdW correction in eV:     82.4772094
Total vdW correction in eV:     82.4769968
  33 F= -.18751741E+03 E0= -.18751733E+03  d E =-.260432E-02
 curvature:  23.77 expect dE= 0.397E+00 dE for cont linesearch  0.217E-02
 ZBRENT: bracketing found
 ZBRENT: interpolating
 opt :   1.4702  next Energy=  -187.518333 (dE=-0.353E-02)
 bond charge predicted
       N       E                     dE             d eps       ncg     rms          rms(c)
Total vdW correction in eV:     82.4941592
DAV:   1    -0.187474907758E+03    0.42501E-01   -0.98607E+00  4184   0.103E+01    0.840E-01
Total vdW correction in eV:     82.4951386
DAV:   2    -0.187520381587E+03   -0.45474E-01   -0.48315E-01  4992   0.190E+00    0.538E-01
Total vdW correction in eV:     82.4949341
DAV:   3    -0.187519020993E+03    0.13606E-02   -0.20125E-02  6016   0.650E-01    0.367E-01
Total vdW correction in eV:     82.4954314
DAV:   4    -0.187518167469E+03    0.85352E-03   -0.21868E-03  5424   0.225E-01    0.237E-01
Total vdW correction in eV:     82.4959582
DAV:   5    -0.187518244725E+03   -0.77256E-04   -0.30443E-03  5216   0.159E-01    0.104E-01
Total vdW correction in eV:     82.4958935
DAV:   6    -0.187518400192E+03   -0.15547E-03   -0.10792E-03  5240   0.893E-02    0.638E-02
Total vdW correction in eV:     82.4958530
DAV:   7    -0.187518378692E+03    0.21500E-04   -0.97005E-05  4856   0.355E-02    0.473E-02
Total vdW correction in eV:     82.4958185
DAV:   8    -0.187518375999E+03    0.26925E-05   -0.11663E-04  4192   0.218E-02    0.218E-02
Total vdW correction in eV:     82.4957206
DAV:   9    -0.187518375665E+03    0.33421E-06   -0.33089E-05  3120   0.169E-02
Total vdW correction in eV:     82.4954201
Total vdW correction in eV:     82.4956329
  34 F= -.18751838E+03 E0= -.18751828E+03  d E =-.357125E-02
 curvature:  -3.24 expect dE=-0.194E-01 dE for cont linesearch -0.283E-05
 trial: gam= 1.41947 g(F)=  0.590E-02 g(S)=  0.936E-04 ort = 0.267E-03 (trialstep = 0.180E+00)
 search vector abs. value=  0.171E+00
 bond charge predicted
       N       E                     dE             d eps       ncg     rms          rms(c)
Total vdW correction in eV:     82.4893507
DAV:   1    -0.187514688118E+03    0.36879E-02   -0.98870E-01  4176   0.339E+00    0.266E-01
Total vdW correction in eV:     82.4897884
DAV:   2    -0.187519531416E+03   -0.48433E-02   -0.53130E-02  5376   0.634E-01    0.170E-01
Total vdW correction in eV:     82.4905188
DAV:   3    -0.187519424629E+03    0.10679E-03   -0.19920E-03  6000   0.207E-01    0.114E-01
Total vdW correction in eV:     82.4907396
DAV:   4    -0.187519359158E+03    0.65471E-04   -0.19247E-04  5280   0.727E-02    0.726E-02
Total vdW correction in eV:     82.4916056
DAV:   5    -0.187519407759E+03   -0.48601E-04   -0.28257E-04  4824   0.487E-02    0.319E-02
Total vdW correction in eV:     82.4917417
DAV:   6    -0.187519428088E+03   -0.20329E-04   -0.94704E-05  4232   0.283E-02    0.192E-02
Total vdW correction in eV:     82.4917385
DAV:   7    -0.187519434509E+03   -0.64202E-05   -0.80906E-06  2160   0.134E-02
Total vdW correction in eV:     82.4915701
Total vdW correction in eV:     82.4916994
  35 F= -.18751943E+03 E0= -.18751934E+03  d E =-.105884E-02
 ZBRENT: can't locate minimum, use default step
 trial-energy change:   -0.001059  1 .order   -0.001065   -0.001147   -0.000984
 step:   0.7202(harm=  1.2652)  dis= 0.01302  next Energy=  -187.522406 (dE=-0.403E-02)
 bond charge predicted
       N       E                     dE             d eps       ncg     rms          rms(c)
Total vdW correction in eV:     82.4727904
DAV:   1    -0.187479698720E+03    0.39729E-01   -0.89164E+00  4176   0.102E+01    0.808E-01
Total vdW correction in eV:     82.4736654
DAV:   2    -0.187523353098E+03   -0.43654E-01   -0.46901E-01  5088   0.186E+00    0.511E-01
Total vdW correction in eV:     82.4761234
DAV:   3    -0.187522492563E+03    0.86053E-03   -0.19641E-02  5904   0.641E-01    0.346E-01
Total vdW correction in eV:     82.4768522
DAV:   4    -0.187521714585E+03    0.77798E-03   -0.19564E-03  5456   0.219E-01    0.226E-01
Total vdW correction in eV:     82.4798431
DAV:   5    -0.187521844601E+03   -0.13002E-03   -0.27460E-03  5360   0.151E-01    0.965E-02
Total vdW correction in eV:     82.4801978
DAV:   6    -0.187521960631E+03   -0.11603E-03   -0.85376E-04  5176   0.813E-02    0.589E-02
Total vdW correction in eV:     82.4801541
DAV:   7    -0.187521942212E+03    0.18418E-04   -0.80234E-05  4656   0.336E-02    0.434E-02
Total vdW correction in eV:     82.4800717
DAV:   8    -0.187521943512E+03   -0.12993E-05   -0.89445E-05  4064   0.202E-02
Total vdW correction in eV:     82.4797065
Total vdW correction in eV:     82.4799444
  36 F= -.18752194E+03 E0= -.18752184E+03  d E =-.356785E-02
 curvature: -12.70 expect dE=-0.443E-01 dE for cont linesearch -0.857E-03
 ZBRENT: increasing intervall
 opt :   1.8006  next Energy=  -187.523383 (dE=-0.501E-02)
 bond charge predicted
       N       E                     dE             d eps       ncg     rms          rms(c)
Total vdW correction in eV:     82.4417795
DAV:   1    -0.187349118361E+03    0.17282E+00   -0.35614E+01  4192   0.203E+01    0.167E+00
Total vdW correction in eV:     82.4423560
DAV:   2    -0.187531047817E+03   -0.18193E+00   -0.19452E+00  5080   0.386E+00    0.105E+00
Total vdW correction in eV:     82.4477897
DAV:   3    -0.187526911716E+03    0.41361E-02   -0.77581E-02  5816   0.130E+00    0.705E-01
Total vdW correction in eV:     82.4493518
DAV:   4    -0.187523521927E+03    0.33898E-02   -0.78412E-03  5488   0.441E-01    0.469E-01
Total vdW correction in eV:     82.4559272
DAV:   5    -0.187523654903E+03   -0.13298E-03   -0.11247E-02  5424   0.303E-01    0.198E-01
Total vdW correction in eV:     82.4567015
DAV:   6    -0.187523998099E+03   -0.34320E-03   -0.33098E-03  5344   0.163E-01    0.117E-01
Total vdW correction in eV:     82.4566027
DAV:   7    -0.187523945094E+03    0.53005E-04   -0.33082E-04  5088   0.669E-02    0.852E-02
Total vdW correction in eV:     82.4564175
DAV:   8    -0.187523919072E+03    0.26023E-04   -0.30061E-04  4752   0.373E-02    0.455E-02
Total vdW correction in eV:     82.4560829
DAV:   9    -0.187523902559E+03    0.16512E-04   -0.10819E-04  5144   0.343E-02    0.208E-02
Total vdW correction in eV:     82.4559469
DAV:  10    -0.187523902785E+03   -0.22530E-06   -0.27986E-05  2824   0.184E-02
Total vdW correction in eV:     82.4560974
Total vdW correction in eV:     82.4559416
  37 F= -.18752390E+03 E0= -.18752377E+03  d E =-.552712E-02
 curvature: -21.31 expect dE=-0.166E+00 dE for cont linesearch -0.163E-04
 trial: gam= 1.25857 g(F)=  0.779E-02 g(S)=  0.100E-04 ort =-0.362E-03 (trialstep = 0.310E+00)
 search vector abs. value=  0.278E+00
 bond charge predicted
       N       E                     dE             d eps       ncg     rms          rms(c)
Total vdW correction in eV:     82.4394520
DAV:   1    -0.187503389828E+03    0.20513E-01   -0.48199E+00  4176   0.734E+00    0.588E-01
Total vdW correction in eV:     82.4402030
DAV:   2    -0.187526544081E+03   -0.23154E-01   -0.24864E-01  5152   0.136E+00    0.384E-01
Total vdW correction in eV:     82.4417671
DAV:   3    -0.187526123238E+03    0.42084E-03   -0.10285E-02  5816   0.455E-01    0.258E-01
Total vdW correction in eV:     82.4422093
DAV:   4    -0.187525732942E+03    0.39030E-03   -0.11159E-03  5400   0.164E-01    0.174E-01
Total vdW correction in eV:     82.4440621
DAV:   5    -0.187525869793E+03   -0.13685E-03   -0.17327E-03  5096   0.117E-01    0.701E-02
Total vdW correction in eV:     82.4441586
DAV:   6    -0.187525918648E+03   -0.48855E-04   -0.46095E-04  4960   0.629E-02    0.424E-02
Total vdW correction in eV:     82.4441098
DAV:   7    -0.187525911056E+03    0.75927E-05   -0.47152E-05  3816   0.251E-02
Total vdW correction in eV:     82.4438836
Total vdW correction in eV:     82.4440946
  38 F= -.18752591E+03 E0= -.18752578E+03  d E =-.200827E-02
 trial-energy change:   -0.002008  1 .order   -0.001869   -0.002280   -0.001457
 step:   0.5150(harm=  0.8601)  dis= 0.01221  next Energy=  -187.526431 (dE=-0.253E-02)
 bond charge predicted
       N       E                     dE             d eps       ncg     rms          rms(c)
Total vdW correction in eV:     82.4331729
DAV:   1    -0.187516928115E+03    0.89905E-02   -0.20947E+00  4160   0.485E+00    0.389E-01
Total vdW correction in eV:     82.4336560
DAV:   2    -0.187526928849E+03   -0.10001E-01   -0.10883E-01  5104   0.892E-01    0.245E-01
Total vdW correction in eV:     82.4346552
DAV:   3    -0.187526840859E+03    0.87990E-04   -0.44496E-03  5928   0.304E-01    0.169E-01
Total vdW correction in eV:     82.4349317
DAV:   4    -0.187526671546E+03    0.16931E-03   -0.46486E-04  5432   0.109E-01    0.112E-01
Total vdW correction in eV:     82.4360728
DAV:   5    -0.187526773869E+03   -0.10232E-03   -0.69295E-04  4984   0.749E-02    0.453E-02
Total vdW correction in eV:     82.4361601
DAV:   6    -0.187526802167E+03   -0.28297E-04   -0.19722E-04  4728   0.413E-02    0.285E-02
Total vdW correction in eV:     82.4361445
DAV:   7    -0.187526802149E+03    0.17128E-07   -0.15748E-05  2368   0.172E-02
Total vdW correction in eV:     82.4359911
Total vdW correction in eV:     82.4361188
  39 F= -.18752680E+03 E0= -.18752666E+03  d E =-.289936E-02
 curvature:  -9.85 expect dE=-0.249E-01 dE for cont linesearch -0.353E-03
 ZBRENT: increasing intervall
 opt :   0.9243  next Energy=  -187.527464 (dE=-0.356E-02)
 bond charge predicted
       N       E                     dE             d eps       ncg     rms          rms(c)
Total vdW correction in eV:     82.4142117
DAV:   1    -0.187488147450E+03    0.38655E-01   -0.83774E+00  4176   0.969E+00    0.785E-01
Total vdW correction in eV:     82.4148859
DAV:   2    -0.187528671384E+03   -0.40524E-01   -0.43546E-01  5128   0.180E+00    0.502E-01
Total vdW correction in eV:     82.4169957
DAV:   3    -0.187528031882E+03    0.63950E-03   -0.17777E-02  5864   0.614E-01    0.339E-01
Total vdW correction in eV:     82.4176076
DAV:   4    -0.187527317883E+03    0.71400E-03   -0.18253E-03  5400   0.217E-01    0.229E-01
Total vdW correction in eV:     82.4200846
DAV:   5    -0.187527473519E+03   -0.15564E-03   -0.28924E-03  5208   0.150E-01    0.917E-02
Total vdW correction in eV:     82.4202436
DAV:   6    -0.187527577545E+03   -0.10403E-03   -0.78637E-04  5104   0.800E-02    0.560E-02
Total vdW correction in eV:     82.4201881
DAV:   7    -0.187527566065E+03    0.11480E-04   -0.78447E-05  4568   0.322E-02    0.427E-02
Total vdW correction in eV:     82.4201511
DAV:   8    -0.187527561414E+03    0.46509E-05   -0.87892E-05  4152   0.199E-02
Total vdW correction in eV:     82.4198564
Total vdW correction in eV:     82.4200433
  40 F= -.18752756E+03 E0= -.18752741E+03  d E =-.365863E-02
 curvature: -18.46 expect dE=-0.443E-01 dE for cont linesearch -0.209E-05
 trial: gam= 0.23577 g(F)=  0.239E-02 g(S)=  0.103E-04 ort =-0.177E-03 (trialstep = 0.433E+00)
 search vector abs. value=  0.178E-01
 bond charge predicted
       N       E                     dE             d eps       ncg     rms          rms(c)
Total vdW correction in eV:     82.4130353
DAV:   1    -0.187525971641E+03    0.15944E-02   -0.56841E-01  4192   0.237E+00    0.235E-01
Total vdW correction in eV:     82.4148560
DAV:   2    -0.187528502895E+03   -0.25313E-02   -0.28126E-02  5360   0.479E-01    0.144E-01
Total vdW correction in eV:     82.4158491
DAV:   3    -0.187528428522E+03    0.74373E-04   -0.97234E-04  5872   0.151E-01    0.966E-02
Total vdW correction in eV:     82.4161755
DAV:   4    -0.187528397036E+03    0.31486E-04   -0.10052E-04  4784   0.562E-02    0.691E-02
Total vdW correction in eV:     82.4172047
DAV:   5    -0.187528421843E+03   -0.24808E-04   -0.19163E-04  4624   0.389E-02    0.283E-02
Total vdW correction in eV:     82.4171796
DAV:   6    -0.187528439590E+03   -0.17747E-04   -0.66310E-05  3760   0.248E-02    0.138E-02
Total vdW correction in eV:     82.4171178
DAV:   7    -0.187528444092E+03   -0.45026E-05   -0.54859E-06  2184   0.117E-02
Total vdW correction in eV:     82.4167566
Total vdW correction in eV:     82.4170310
  41 F= -.18752844E+03 E0= -.18752831E+03  d E =-.882678E-03
 trial-energy change:   -0.000883  1 .order   -0.000846   -0.001023   -0.000669
 step:   1.2544(harm=  1.2544)  dis= 0.00893  next Energy=  -187.529042 (dE=-0.148E-02)
 bond charge predicted
       N       E                     dE             d eps       ncg     rms          rms(c)
Total vdW correction in eV:     82.4036938
DAV:   1    -0.187520389681E+03    0.80499E-02   -0.20426E+00  4184   0.449E+00    0.448E-01
Total vdW correction in eV:     82.4069473
DAV:   2    -0.187529500835E+03   -0.91112E-02   -0.99715E-02  5072   0.894E-01    0.274E-01
Total vdW correction in eV:     82.4088645
DAV:   3    -0.187529233865E+03    0.26697E-03   -0.39480E-03  5816   0.294E-01    0.184E-01
Total vdW correction in eV:     82.4094879
DAV:   4    -0.187529067988E+03    0.16588E-03   -0.43998E-04  5584   0.108E-01    0.130E-01
Total vdW correction in eV:     82.4113907
DAV:   5    -0.187529127485E+03   -0.59496E-04   -0.68614E-04  4976   0.754E-02    0.530E-02
Total vdW correction in eV:     82.4113323
DAV:   6    -0.187529161889E+03   -0.34405E-04   -0.23524E-04  4936   0.426E-02    0.269E-02
Total vdW correction in eV:     82.4112324
DAV:   7    -0.187529166189E+03   -0.42994E-05   -0.16421E-05  2304   0.172E-02
Total vdW correction in eV:     82.4106033
Total vdW correction in eV:     82.4110972
  42 F= -.18752917E+03 E0= -.18752906E+03  d E =-.160477E-02
 curvature:  -4.72 expect dE=-0.772E-02 dE for cont linesearch -0.184E-06
 trial: gam= 0.65448 g(F)=  0.162E-02 g(S)=  0.191E-04 ort = 0.263E-04 (trialstep = 0.597E+00)
 search vector abs. value=  0.928E-02
 bond charge predicted
       N       E                     dE             d eps       ncg     rms          rms(c)
Total vdW correction in eV:     82.4053847
DAV:   1    -0.187527433631E+03    0.17283E-02   -0.53459E-01  4200   0.219E+00    0.248E-01
Total vdW correction in eV:     82.4091234
DAV:   2    -0.187529907102E+03   -0.24735E-02   -0.28196E-02  5408   0.478E-01    0.152E-01
Total vdW correction in eV:     82.4107612
DAV:   3    -0.187529804826E+03    0.10228E-03   -0.85562E-04  5968   0.144E-01    0.101E-01
Total vdW correction in eV:     82.4113879
DAV:   4    -0.187529783954E+03    0.20873E-04   -0.10714E-04  5024   0.580E-02    0.785E-02
Total vdW correction in eV:     82.4131771
DAV:   5    -0.187529793170E+03   -0.92162E-05   -0.25303E-04  4896   0.462E-02    0.291E-02
Total vdW correction in eV:     82.4130704
DAV:   6    -0.187529807529E+03   -0.14359E-04   -0.83611E-05  4128   0.253E-02    0.155E-02
Total vdW correction in eV:     82.4129504
DAV:   7    -0.187529812652E+03   -0.51233E-05   -0.62129E-06  2128   0.109E-02
Total vdW correction in eV:     82.4121497
Total vdW correction in eV:     82.4127196
  43 F= -.18752981E+03 E0= -.18752972E+03  d E =-.646464E-03
 trial-energy change:   -0.000646  1 .order   -0.000605   -0.000987   -0.000223
 step:   0.7229(harm=  0.7719)  dis= 0.00440  next Energy=  -187.529836 (dE=-0.670E-03)
 bond charge predicted
       N       E                     dE             d eps       ncg     rms          rms(c)
Total vdW correction in eV:     82.4115155
DAV:   1    -0.187529742287E+03    0.65242E-04   -0.23555E-02  4248   0.460E-01    0.528E-02
Total vdW correction in eV:     82.4122160
DAV:   2    -0.187529841852E+03   -0.99565E-04   -0.13300E-03  5560   0.114E-01    0.326E-02
Total vdW correction in eV:     82.4125360
DAV:   3    -0.187529837513E+03    0.43391E-05   -0.33332E-05  3456   0.317E-02    0.214E-02
Total vdW correction in eV:     82.4126646
DAV:   4    -0.187529837979E+03   -0.46623E-06   -0.55560E-06  2208   0.142E-02    0.169E-02
Total vdW correction in eV:     82.4130795
DAV:   5    -0.187529852543E+03   -0.14564E-04   -0.15061E-05  2440   0.137E-02    0.563E-03
Total vdW correction in eV:     82.4130443
DAV:   6    -0.187529857350E+03   -0.48064E-05   -0.54747E-06  2152   0.109E-02
Total vdW correction in eV:     82.4128252
Total vdW correction in eV:     82.4129857
  44 F= -.18752986E+03 E0= -.18752977E+03  d E =-.691161E-03
 curvature:  -2.00 expect dE=-0.575E-03 dE for cont linesearch -0.103E-04
 ZBRENT: increasing intervall
 opt :   0.9740  next Energy=  -187.529873 (dE=-0.707E-03)
 bond charge predicted
       N       E                     dE             d eps       ncg     rms          rms(c)
Total vdW correction in eV:     82.4105738
DAV:   1    -0.187529415911E+03    0.43663E-03   -0.94174E-02  4216   0.918E-01    0.103E-01
Total vdW correction in eV:     82.4121246
DAV:   2    -0.187529824727E+03   -0.40882E-03   -0.49008E-03  5408   0.200E-01    0.646E-02
Total vdW correction in eV:     82.4127907
DAV:   3    -0.187529805116E+03    0.19611E-04   -0.15582E-04  5776   0.612E-02    0.426E-02
Total vdW correction in eV:     82.4130431
DAV:   4    -0.187529799017E+03    0.60990E-05   -0.14534E-05  2864   0.248E-02    0.337E-02
Total vdW correction in eV:     82.4138683
DAV:   5    -0.187529811872E+03   -0.12855E-04   -0.61735E-05  4016   0.212E-02    0.120E-02
Total vdW correction in eV:     82.4137862
DAV:   6    -0.187529821226E+03   -0.93541E-05   -0.12633E-05  2368   0.128E-02
Total vdW correction in eV:     82.4133075
Total vdW correction in eV:     82.4136949
  45 F= -.18752982E+03 E0= -.18752974E+03  d E =-.655037E-03
 curvature:  -3.10 expect dE=-0.205E-02 dE for cont linesearch -0.591E-04
 ZBRENT: bracketing found
 ZBRENT: interpolating
 opt :   0.8088  next Energy=  -187.529867 (dE=-0.701E-03)
 bond charge predicted
       N       E                     dE             d eps       ncg     rms          rms(c)
Total vdW correction in eV:     82.4152826
DAV:   1    -0.187529685551E+03    0.12632E-03   -0.40853E-02  4224   0.604E-01    0.665E-02
Total vdW correction in eV:     82.4140389
DAV:   2    -0.187529851779E+03   -0.16623E-03   -0.20787E-03  5520   0.137E-01    0.418E-02
Total vdW correction in eV:     82.4135842
DAV:   3    -0.187529840235E+03    0.11544E-04   -0.52874E-05  4480   0.386E-02    0.275E-02
Total vdW correction in eV:     82.4134020
DAV:   4    -0.187529839825E+03    0.40977E-06   -0.65695E-06  2128   0.161E-02    0.214E-02
Total vdW correction in eV:     82.4127898
DAV:   5    -0.187529856442E+03   -0.16617E-04   -0.26824E-05  2744   0.146E-02    0.784E-03
Total vdW correction in eV:     82.4128498
DAV:   6    -0.187529863480E+03   -0.70381E-05   -0.60803E-06  2104   0.102E-02
Total vdW correction in eV:     82.4131379
Total vdW correction in eV:     82.4129391
  46 F= -.18752986E+03 E0= -.18752978E+03  d E =-.697291E-03
 curvature:  -0.49 expect dE=-0.175E-03 dE for cont linesearch -0.261E-06
 trial: gam= 0.31813 g(F)=  0.355E-03 g(S)=  0.211E-06 ort =-0.702E-04 (trialstep = 0.640E+00)
 search vector abs. value=  0.125E-02
 bond charge predicted
       N       E                     dE             d eps       ncg     rms          rms(c)
Total vdW correction in eV:     82.4121562
DAV:   1    -0.187529641590E+03    0.21485E-03   -0.78766E-02  4176   0.855E-01    0.937E-02
Total vdW correction in eV:     82.4131999
DAV:   2    -0.187529994117E+03   -0.35253E-03   -0.41618E-03  5472   0.191E-01    0.605E-02
Total vdW correction in eV:     82.4137175
DAV:   3    -0.187529978687E+03    0.15430E-04   -0.11521E-04  5408   0.531E-02    0.391E-02
Total vdW correction in eV:     82.4139264
DAV:   4    -0.187529974357E+03    0.43294E-05   -0.11296E-05  2536   0.222E-02    0.339E-02
Total vdW correction in eV:     82.4146843
DAV:   5    -0.187529994167E+03   -0.19810E-04   -0.69870E-05  3952   0.217E-02    0.109E-02
Total vdW correction in eV:     82.4145787
DAV:   6    -0.187530000156E+03   -0.59890E-05   -0.11728E-05  2160   0.129E-02
Total vdW correction in eV:     82.4140275
Total vdW correction in eV:     82.4144732
  47 F= -.18753000E+03 E0= -.18752992E+03  d E =-.136676E-03
 trial-energy change:   -0.000137  1 .order   -0.000136   -0.000213   -0.000059
 step:   0.8816(harm=  0.8816)  dis= 0.00192  next Energy=  -187.530010 (dE=-0.147E-03)
 bond charge predicted
       N       E                     dE             d eps       ncg     rms          rms(c)
Total vdW correction in eV:     82.4141757
DAV:   1    -0.187529947456E+03    0.46711E-04   -0.11151E-02  4248   0.324E-01    0.369E-02
Total vdW correction in eV:     82.4144275
DAV:   2    -0.187529995951E+03   -0.48495E-04   -0.74233E-04  5424   0.872E-02    0.233E-02
Total vdW correction in eV:     82.4146125
DAV:   3    -0.187529991430E+03    0.45207E-05   -0.16848E-05  2616   0.240E-02    0.151E-02
Total vdW correction in eV:     82.4146796
DAV:   4    -0.187529994203E+03   -0.27732E-05   -0.51601E-06  2160   0.143E-02    0.126E-02
Total vdW correction in eV:     82.4148968
DAV:   5    -0.187530010353E+03   -0.16150E-04   -0.86241E-06  2104   0.107E-02    0.391E-03
Total vdW correction in eV:     82.4148698
DAV:   6    -0.187530013478E+03   -0.31246E-05   -0.35270E-06  2104   0.103E-02
Total vdW correction in eV:     82.4147008
Total vdW correction in eV:     82.4148186
  48 F= -.18753001E+03 E0= -.18752994E+03  d E =-.149998E-03
 curvature:  -1.65 expect dE=-0.404E-03 dE for cont linesearch -0.584E-06
 trial: gam= 0.61441 g(F)=  0.219E-03 g(S)=  0.258E-04 ort = 0.210E-04 (trialstep = 0.688E+00)
 search vector abs. value=  0.742E-03
 bond charge predicted
       N       E                     dE             d eps       ncg     rms          rms(c)
Total vdW correction in eV:     82.4153055
DAV:   1    -0.187529886663E+03    0.12369E-03   -0.55144E-02  4224   0.756E-01    0.774E-02
Total vdW correction in eV:     82.4129553
DAV:   2    -0.187530124745E+03   -0.23808E-03   -0.32554E-03  5264   0.157E-01    0.446E-02
Total vdW correction in eV:     82.4124238
DAV:   3    -0.187530117144E+03    0.76008E-05   -0.10942E-04  5272   0.457E-02    0.299E-02
Total vdW correction in eV:     82.4120194
DAV:   4    -0.187530116527E+03    0.61739E-06   -0.10319E-05  2664   0.206E-02    0.227E-02
Total vdW correction in eV:     82.4113452
DAV:   5    -0.187530123853E+03   -0.73264E-05   -0.20690E-05  2488   0.158E-02
Total vdW correction in eV:     82.4110877
Total vdW correction in eV:     82.4111416
  49 F= -.18753012E+03 E0= -.18753005E+03  d E =-.110375E-03
 trial-energy change:   -0.000110  1 .order   -0.000135   -0.000177   -0.000093
 step:   1.4541(harm=  1.4541)  dis= 0.00195  next Energy=  -187.530201 (dE=-0.187E-03)
 bond charge predicted
       N       E                     dE             d eps       ncg     rms          rms(c)
Total vdW correction in eV:     82.4116812
DAV:   1    -0.187529852701E+03    0.26383E-03   -0.68194E-02  4240   0.842E-01    0.861E-02
Total vdW correction in eV:     82.4092495
DAV:   2    -0.187530167306E+03   -0.31460E-03   -0.41358E-03  5376   0.190E-01    0.510E-02
Total vdW correction in eV:     82.4087298
DAV:   3    -0.187530159925E+03    0.73813E-05   -0.14064E-04  5616   0.533E-02    0.329E-02
Total vdW correction in eV:     82.4083010
DAV:   4    -0.187530158511E+03    0.14137E-05   -0.11696E-05  2752   0.225E-02    0.254E-02
Total vdW correction in eV:     82.4076457
DAV:   5    -0.187530164838E+03   -0.63273E-05   -0.21416E-05  2536   0.175E-02
Total vdW correction in eV:     82.4072914
Total vdW correction in eV:     82.4073707
  50 F= -.18753016E+03 E0= -.18753009E+03  d E =-.151360E-03
 curvature:  -2.10 expect dE=-0.534E-03 dE for cont linesearch -0.507E-06
 trial: gam= 1.02846 g(F)=  0.250E-03 g(S)=  0.445E-05 ort = 0.134E-04 (trialstep = 0.585E+00)
 search vector abs. value=  0.107E-02
 bond charge predicted
       N       E                     dE             d eps       ncg     rms          rms(c)
Total vdW correction in eV:     82.4082779
DAV:   1    -0.187530030125E+03    0.12839E-03   -0.62318E-02  4312   0.804E-01    0.807E-02
Total vdW correction in eV:     82.4052314
DAV:   2    -0.187530268496E+03   -0.23837E-03   -0.35466E-03  5384   0.171E-01    0.476E-02
Total vdW correction in eV:     82.4044329
DAV:   3    -0.187530261681E+03    0.68151E-05   -0.11956E-04  5432   0.471E-02    0.296E-02
Total vdW correction in eV:     82.4038052
DAV:   4    -0.187530263810E+03   -0.21298E-05   -0.12832E-05  2704   0.225E-02    0.228E-02
Total vdW correction in eV:     82.4031229
DAV:   5    -0.187530274023E+03   -0.10213E-04   -0.16917E-05  2256   0.177E-02    0.101E-02
Total vdW correction in eV:     82.4028840
DAV:   6    -0.187530283320E+03   -0.92966E-05   -0.10912E-05  2200   0.147E-02
Total vdW correction in eV:     82.4031058
Total vdW correction in eV:     82.4029295
  51 F= -.18753028E+03 E0= -.18753020E+03  d E =-.118482E-03
 trial-energy change:   -0.000118  1 .order   -0.000119   -0.000157   -0.000081
 step:   1.2147(harm=  1.2147)  dis= 0.00169  next Energy=  -187.530328 (dE=-0.163E-03)
 bond charge predicted
       N       E                     dE             d eps       ncg     rms          rms(c)
Total vdW correction in eV:     82.4039045
DAV:   1    -0.187530016635E+03    0.25739E-03   -0.72314E-02  4304   0.865E-01    0.864E-02
Total vdW correction in eV:     82.4006706
DAV:   2    -0.187530294917E+03   -0.27828E-03   -0.40811E-03  5488   0.187E-01    0.491E-02
Total vdW correction in eV:     82.3997870
DAV:   3    -0.187530287384E+03    0.75334E-05   -0.13038E-04  5608   0.505E-02    0.314E-02
Total vdW correction in eV:     82.3991295
DAV:   4    -0.187530288249E+03   -0.86479E-06   -0.14928E-05  2976   0.237E-02    0.241E-02
Total vdW correction in eV:     82.3983872
DAV:   5    -0.187530298589E+03   -0.10340E-04   -0.19384E-05  2312   0.184E-02    0.101E-02
Total vdW correction in eV:     82.3981787
DAV:   6    -0.187530307356E+03   -0.87665E-05   -0.11367E-05  2200   0.148E-02
Total vdW correction in eV:     82.3984293
Total vdW correction in eV:     82.3982390
  52 F= -.18753031E+03 E0= -.18753022E+03  d E =-.142517E-03
 curvature:  -2.41 expect dE=-0.685E-03 dE for cont linesearch -0.712E-07
 trial: gam= 1.20799 g(F)=  0.257E-03 g(S)=  0.268E-04 ort =-0.561E-05 (trialstep = 0.415E+00)
 search vector abs. value=  0.183E-02
 bond charge predicted
       N       E                     dE             d eps       ncg     rms          rms(c)
Total vdW correction in eV:     82.3989620
DAV:   1    -0.187530149840E+03    0.14875E-03   -0.55045E-02  4168   0.745E-01    0.650E-02
Total vdW correction in eV:     82.3982351
DAV:   2    -0.187530374128E+03   -0.22429E-03   -0.27591E-03  5504   0.162E-01    0.350E-02
Total vdW correction in eV:     82.3980792
DAV:   3    -0.187530371916E+03    0.22124E-05   -0.71280E-05  4488   0.403E-02    0.229E-02
Total vdW correction in eV:     82.3979397
DAV:   4    -0.187530375014E+03   -0.30984E-05   -0.66775E-06  2368   0.167E-02    0.174E-02
Total vdW correction in eV:     82.3977290
DAV:   5    -0.187530389062E+03   -0.14048E-04   -0.10329E-05  2200   0.131E-02    0.758E-03
Total vdW correction in eV:     82.3976679
DAV:   6    -0.187530397103E+03   -0.80412E-05   -0.61280E-06  2200   0.122E-02
Total vdW correction in eV:     82.3977540
Total vdW correction in eV:     82.3976807
  53 F= -.18753040E+03 E0= -.18753031E+03  d E =-.897477E-04
 ZBRENT: can't locate minimum, use default step
 trial-energy change:   -0.000090  1 .order   -0.000105   -0.000115   -0.000095
 step:   1.6606(harm=  2.3891)  dis= 0.00250  next Energy=  -187.530638 (dE=-0.331E-03)
 bond charge predicted
       N       E                     dE             d eps       ncg     rms          rms(c)
Total vdW correction in eV:     82.3998457
DAV:   1    -0.187528388915E+03    0.20001E-02   -0.49702E-01  4168   0.223E+00    0.197E-01
Total vdW correction in eV:     82.3971860
DAV:   2    -0.187530467997E+03   -0.20791E-02   -0.23590E-02  5200   0.434E-01    0.108E-01
Total vdW correction in eV:     82.3966035
DAV:   3    -0.187530466457E+03    0.15396E-05   -0.77060E-04  6008   0.117E-01    0.689E-02
Total vdW correction in eV:     82.3961526
DAV:   4    -0.187530469238E+03   -0.27803E-05   -0.79128E-05  5000   0.463E-02    0.550E-02
Total vdW correction in eV:     82.3954558
DAV:   5    -0.187530470515E+03   -0.12779E-05   -0.90612E-05  4608   0.349E-02
Total vdW correction in eV:     82.3955117
Total vdW correction in eV:     82.3953405
  54 F= -.18753047E+03 E0= -.18753038E+03  d E =-.163160E-03
 curvature:  -6.81 expect dE=-0.273E-02 dE for cont linesearch -0.907E-05
 trial: gam= 1.18566 g(F)=  0.400E-03 g(S)=  0.217E-07 ort =-0.493E-04 (trialstep = 0.426E+00)
 search vector abs. value=  0.285E-02
 bond charge predicted
       N       E                     dE             d eps       ncg     rms          rms(c)
Total vdW correction in eV:     82.3949756
DAV:   1    -0.187530219436E+03    0.24980E-03   -0.89919E-02  4128   0.906E-01    0.855E-02
Total vdW correction in eV:     82.3942001
DAV:   2    -0.187530604811E+03   -0.38538E-03   -0.44300E-03  5448   0.211E-01    0.499E-02
Total vdW correction in eV:     82.3939435
DAV:   3    -0.187530603002E+03    0.18093E-05   -0.12486E-04  5432   0.511E-02    0.323E-02
Total vdW correction in eV:     82.3937425
DAV:   4    -0.187530606669E+03   -0.36672E-05   -0.93787E-06  2560   0.193E-02    0.259E-02
Total vdW correction in eV:     82.3934201
DAV:   5    -0.187530623234E+03   -0.16564E-04   -0.20655E-05  2544   0.180E-02    0.104E-02
Total vdW correction in eV:     82.3933658
DAV:   6    -0.187530630704E+03   -0.74698E-05   -0.10161E-05  2224   0.152E-02
Total vdW correction in eV:     82.3935688
Total vdW correction in eV:     82.3933986
  55 F= -.18753063E+03 E0= -.18753053E+03  d E =-.160188E-03
 ZBRENT: can't locate minimum, use default step
 trial-energy change:   -0.000160  1 .order   -0.000141   -0.000146   -0.000136
 step:   1.7022(harm=  6.8020)  dis= 0.00308  next Energy=  -187.531634 (dE=-0.116E-02)
 bond charge predicted
       N       E                     dE             d eps       ncg     rms          rms(c)
Total vdW correction in eV:     82.3923030
DAV:   1    -0.187527227405E+03    0.33958E-02   -0.80976E-01  4128   0.271E+00    0.253E-01
Total vdW correction in eV:     82.3896585
DAV:   2    -0.187530772702E+03   -0.35453E-02   -0.39076E-02  5336   0.590E-01    0.148E-01
Total vdW correction in eV:     82.3888759
DAV:   3    -0.187530742027E+03    0.30675E-04   -0.10648E-03  5952   0.144E-01    0.955E-02
Total vdW correction in eV:     82.3882620
DAV:   4    -0.187530746609E+03   -0.45814E-05   -0.12178E-04  5408   0.546E-02    0.771E-02
Total vdW correction in eV:     82.3872653
DAV:   5    -0.187530755330E+03   -0.87207E-05   -0.20174E-04  4576   0.495E-02    0.310E-02
Total vdW correction in eV:     82.3871714
DAV:   6    -0.187530768840E+03   -0.13510E-04   -0.82887E-05  4648   0.306E-02    0.155E-02
Total vdW correction in eV:     82.3872699
DAV:   7    -0.187530773571E+03   -0.47312E-05   -0.10621E-05  2272   0.115E-02
Total vdW correction in eV:     82.3878305
Total vdW correction in eV:     82.3874927
  56 F= -.18753077E+03 E0= -.18753068E+03  d E =-.303056E-03
 curvature: -10.22 expect dE=-0.896E-02 dE for cont linesearch -0.179E-04
 trial: gam= 2.32676 g(F)=  0.810E-03 g(S)=  0.660E-04 ort =-0.707E-04 (trialstep = 0.121E+00)
 search vector abs. value=  0.160E-01
 bond charge predicted
       N       E                     dE             d eps       ncg     rms          rms(c)
Total vdW correction in eV:     82.3868165
DAV:   1    -0.187530663582E+03    0.10526E-03   -0.40773E-02  4128   0.623E-01    0.542E-02
Total vdW correction in eV:     82.3870058
DAV:   2    -0.187530843108E+03   -0.17953E-03   -0.21343E-03  5528   0.153E-01    0.290E-02
Total vdW correction in eV:     82.3871060
DAV:   3    -0.187530842539E+03    0.56836E-06   -0.46910E-05  3824   0.350E-02    0.194E-02
Total vdW correction in eV:     82.3871520
DAV:   4    -0.187530845908E+03   -0.33682E-05   -0.62832E-06  2264   0.140E-02    0.151E-02
Total vdW correction in eV:     82.3873180
DAV:   5    -0.187530862511E+03   -0.16603E-04   -0.97468E-06  2224   0.135E-02    0.601E-03
Total vdW correction in eV:     82.3873361
DAV:   6    -0.187530862992E+03   -0.48097E-06   -0.54284E-06  2224   0.118E-02
Total vdW correction in eV:     82.3873609
Total vdW correction in eV:     82.3873409
  57 F= -.18753086E+03 E0= -.18753077E+03  d E =-.894207E-04
 ZBRENT: can't locate minimum, use default step
 trial-energy change:   -0.000089  1 .order   -0.000093   -0.000086   -0.000099
 step:   0.4858(harm=  0.4858)  dis= 0.00206  next Energy=  -187.531220 (dE=-0.446E-03)
 bond charge predicted
       N       E                     dE             d eps       ncg     rms          rms(c)
Total vdW correction in eV:     82.3853124
DAV:   1    -0.187529478218E+03    0.13843E-02   -0.36630E-01  4120   0.186E+00    0.156E-01
Total vdW correction in eV:     82.3856875
DAV:   2    -0.187531064222E+03   -0.15860E-02   -0.17441E-02  5256   0.387E-01    0.860E-02
Total vdW correction in eV:     82.3859544
DAV:   3    -0.187531063750E+03    0.47274E-06   -0.49836E-04  5960   0.970E-02    0.578E-02
Total vdW correction in eV:     82.3860870
DAV:   4    -0.187531065525E+03   -0.17759E-05   -0.45667E-05  4344   0.355E-02    0.446E-02
Total vdW correction in eV:     82.3864868
DAV:   5    -0.187531082752E+03   -0.17226E-04   -0.80635E-05  4040   0.305E-02    0.196E-02
Total vdW correction in eV:     82.3865210
DAV:   6    -0.187531089639E+03   -0.68867E-05   -0.22791E-05  2472   0.197E-02
Total vdW correction in eV:     82.3864167
Total vdW correction in eV:     82.3865007
  58 F= -.18753109E+03 E0= -.18753100E+03  d E =-.316068E-03
 curvature:  -8.51 expect dE=-0.588E-02 dE for cont linesearch -0.189E-03
 ZBRENT: increasing intervall
 opt :   1.2146  next Energy=  -187.531364 (dE=-0.591E-03)
 bond charge predicted
       N       E                     dE             d eps       ncg     rms          rms(c)
Total vdW correction in eV:     82.3824434
DAV:   1    -0.187524882380E+03    0.62004E-02   -0.14661E+00  4120   0.372E+00    0.320E-01
Total vdW correction in eV:     82.3830191
DAV:   2    -0.187531373242E+03   -0.64909E-02   -0.70397E-02  5296   0.782E-01    0.176E-01
Total vdW correction in eV:     82.3835956
DAV:   3    -0.187531360406E+03    0.12837E-04   -0.19343E-03  5904   0.195E-01    0.117E-01
Total vdW correction in eV:     82.3838951
DAV:   4    -0.187531351732E+03    0.86741E-05   -0.18836E-04  5584   0.709E-02    0.908E-02
Total vdW correction in eV:     82.3847846
DAV:   5    -0.187531380220E+03   -0.28488E-04   -0.31711E-04  4712   0.614E-02    0.398E-02
Total vdW correction in eV:     82.3848647
DAV:   6    -0.187531387336E+03   -0.71167E-05   -0.11287E-04  5080   0.365E-02    0.180E-02
Total vdW correction in eV:     82.3848098
DAV:   7    -0.187531389765E+03   -0.24283E-05   -0.16712E-05  2424   0.136E-02
Total vdW correction in eV:     82.3845437
Total vdW correction in eV:     82.3846697
  59 F= -.18753139E+03 E0= -.18753130E+03  d E =-.616194E-03
 curvature: -12.37 expect dE=-0.103E-01 dE for cont linesearch -0.283E-04
 ZBRENT: extrapolating
 opt :   1.5593  next Energy=  -187.531423 (dE=-0.649E-03)
 bond charge predicted
       N       E                     dE             d eps       ncg     rms          rms(c)
Total vdW correction in eV:     82.3827513
DAV:   1    -0.187529988524E+03    0.13988E-02   -0.32868E-01  4136   0.176E+00    0.153E-01
Total vdW correction in eV:     82.3830723
DAV:   2    -0.187531434772E+03   -0.14462E-02   -0.15828E-02  5400   0.381E-01    0.844E-02
Total vdW correction in eV:     82.3833407
DAV:   3    -0.187531427813E+03    0.69586E-05   -0.41315E-04  5840   0.947E-02    0.558E-02
Total vdW correction in eV:     82.3834837
DAV:   4    -0.187531429669E+03   -0.18561E-05   -0.36001E-05  3912   0.341E-02    0.439E-02
Total vdW correction in eV:     82.3839235
DAV:   5    -0.187531447457E+03   -0.17787E-04   -0.84103E-05  4176   0.300E-02    0.182E-02
Total vdW correction in eV:     82.3839570
DAV:   6    -0.187531451742E+03   -0.42857E-05   -0.21893E-05  2416   0.190E-02
Total vdW correction in eV:     82.3838522
Total vdW correction in eV:     82.3839370
  60 F= -.18753145E+03 E0= -.18753136E+03  d E =-.678171E-03
 curvature: -14.40 expect dE=-0.150E-01 dE for cont linesearch -0.173E-04
 trial: gam= 0.67838 g(F)=  0.101E-02 g(S)=  0.286E-04 ort = 0.138E-03 (trialstep = 0.409E+00)
 search vector abs. value=  0.859E-02
 bond charge predicted
       N       E                     dE             d eps       ncg     rms          rms(c)
Total vdW correction in eV:     82.3809142
DAV:   1    -0.187530661767E+03    0.78569E-03   -0.26156E-01  4144   0.164E+00    0.137E-01
Total vdW correction in eV:     82.3831739
DAV:   2    -0.187531818655E+03   -0.11569E-02   -0.13217E-02  5376   0.337E-01    0.715E-02
Total vdW correction in eV:     82.3839640
DAV:   3    -0.187531814119E+03    0.45358E-05   -0.36177E-04  5920   0.835E-02    0.459E-02
Total vdW correction in eV:     82.3844204
DAV:   4    -0.187531815274E+03   -0.11542E-05   -0.27027E-05  3576   0.306E-02    0.361E-02
Total vdW correction in eV:     82.3853068
DAV:   5    -0.187531823509E+03   -0.82355E-05   -0.49456E-05  3864   0.260E-02
Total vdW correction in eV:     82.3852137
Total vdW correction in eV:     82.3853861
  61 F= -.18753182E+03 E0= -.18753174E+03  d E =-.371767E-03
 trial-energy change:   -0.000372  1 .order   -0.000368   -0.000464   -0.000273
 step:   0.9930(harm=  0.9930)  dis= 0.00303  next Energy=  -187.532015 (dE=-0.563E-03)
 bond charge predicted
       N       E                     dE             d eps       ncg     rms          rms(c)
Total vdW correction in eV:     82.3810678
DAV:   1    -0.187529730987E+03    0.20843E-02   -0.53328E-01  4144   0.235E+00    0.194E-01
Total vdW correction in eV:     82.3841589
DAV:   2    -0.187532043810E+03   -0.23128E-02   -0.26194E-02  5040   0.456E-01    0.102E-01
Total vdW correction in eV:     82.3852710
DAV:   3    -0.187532048788E+03   -0.49777E-05   -0.83881E-04  6176   0.117E-01    0.661E-02
Total vdW correction in eV:     82.3859077
DAV:   4    -0.187532055660E+03   -0.68725E-05   -0.76237E-05  5088   0.439E-02    0.519E-02
Total vdW correction in eV:     82.3870453
DAV:   5    -0.187532059546E+03   -0.38860E-05   -0.79999E-05  4736   0.347E-02
Total vdW correction in eV:     82.3870399
Total vdW correction in eV:     82.3871801
  62 F= -.18753206E+03 E0= -.18753198E+03  d E =-.607804E-03
 curvature:  -3.76 expect dE=-0.249E-02 dE for cont linesearch -0.139E-05
 trial: gam= 0.67284 g(F)=  0.647E-03 g(S)=  0.148E-04 ort = 0.564E-04 (trialstep = 0.526E+00)
 search vector abs. value=  0.463E-02
 bond charge predicted
       N       E                     dE             d eps       ncg     rms          rms(c)
Total vdW correction in eV:     82.3833978
DAV:   1    -0.187531345499E+03    0.71016E-03   -0.23506E-01  4136   0.155E+00    0.138E-01
Total vdW correction in eV:     82.3871060
DAV:   2    -0.187532388618E+03   -0.10431E-02   -0.12515E-02  5208   0.324E-01    0.764E-02
Total vdW correction in eV:     82.3883150
DAV:   3    -0.187532377294E+03    0.11324E-04   -0.36891E-04  5936   0.810E-02    0.491E-02
Total vdW correction in eV:     82.3890703
DAV:   4    -0.187532380805E+03   -0.35114E-05   -0.37564E-05  4048   0.342E-02    0.382E-02
Total vdW correction in eV:     82.3902328
DAV:   5    -0.187532385864E+03   -0.50586E-05   -0.56217E-05  4032   0.271E-02
Total vdW correction in eV:     82.3898602
Total vdW correction in eV:     82.3902319
  63 F= -.18753239E+03 E0= -.18753232E+03  d E =-.326317E-03
 trial-energy change:   -0.000326  1 .order   -0.000303   -0.000368   -0.000239
 step:   1.4968(harm=  1.4968)  dis= 0.00319  next Energy=  -187.532583 (dE=-0.524E-03)
 bond charge predicted
       N       E                     dE             d eps       ncg     rms          rms(c)
Total vdW correction in eV:     82.3832476
DAV:   1    -0.187529109877E+03    0.32709E-02   -0.80261E-01  4136   0.287E+00    0.253E-01
Total vdW correction in eV:     82.3902049
DAV:   2    -0.187532683962E+03   -0.35741E-02   -0.42399E-02  5112   0.587E-01    0.139E-01
Total vdW correction in eV:     82.3925037
DAV:   3    -0.187532659542E+03    0.24420E-04   -0.13099E-03  6064   0.149E-01    0.896E-02
Total vdW correction in eV:     82.3939214
